************************************************************
*** WorkDir at /lustre/tmp/slurm/2657487/geo_opt cleaned ***
************************************************************
   This run of MOLCAS is using the pymolcas driver

                             OPE
                             OPE          NMOL  CASOP  ENMOLC A   SO
                 OPE        NMOLC        AS  OP EN  MO LC     AS  OP
                OPENM       OL CA        SO  PE NM  OL CA     SOP EN
                OP EN      MO   LC       AS  OP ENMOL  CASO   PENMOL
                OP  EN     MO   LC       AS  OP EN     MO     LC ASO
               OP   E  NMOL  C  AS       OP  EN MO     LC     AS  OP
               OP  E   NMO   LC AS        OPEN  MO     LCASOP EN   M
               O  PEN   MO  LCA  SO
            OPE   NMO   L   CAS    OP
        OPENMOL  CASOP     ENMOL   CASOPE
     OPENMOLCA   SOPENMOLCASOPEN   MOLCASOPE
    OPENMOLCAS   OP           EN   MOL    CAS
    OPENMOLCAS       OP  ENM        O     LCA
    OPENMOLCAS    OPEN  MOLCASO     P  E  NMO
    OPENMOLCAS     OP               E  N  MOL
    OPENMOLCA   SO           PENM   O  L  CAS    OPEN    MO    LCAS
    OPENMOLCA   SOP           ENM   O  L  CAS   OP  EN  MOLC  AS   O
    OPENMOLCA   SOPE           NM      O  LCA   S      OP  EN MO
    OPENMOLC                AS         O  PEN   M      OL  CA  SOPE
    OPENMO        LCASOPE  NMOL        C  ASO   P      ENMOLC     AS
    OPE     NMO      LCA  SO     P     E   NM   OL  CA SO  PE N   MO
          OPENMOLCA            SOPE   NMO        LCAS  O    P  ENMO
     OPENMOLCASOPENMOLCASOPENMOLCASOPENMOLCA
        OPENMOLCASOPENMOLCASOPENMOLCASOPE
            OPENMOLCASOPENMOLCASOPENM
               OPENMOLCASOPENMOLCA        version: v22.10 ?
                   OPENMOLCASO
                       OPE                tag:

 OpenMolcas is free software; you can redistribute it and/or modify it
 under the terms of the GNU Lesser General Public License version 2.1.
 OpenMolcas is distributed in the hope that it will be useful, but it
 is provided "as is" and without any express or implied warranties.
 For more details see the full text of the license in the file
 LICENSE or in <http://www.gnu.org/licenses/>.

                 Copyright (C) The OpenMolcas Authors
           For the author list and the recommended citation,
                   consult the file CONTRIBUTORS.md

           *************************************************
           * pymolcas version py2.23                       *
           *   build d53e6f8e18683222a6e02cb84ce98eb3      *
           *   (after the EMIL interpreter by V. Veryazov) *
           *************************************************

configuration info
------------------
Host name: r31c02b16.bem2.kdm.wcss.pl (Linux)
C Compiler ID: Intel
C flags: -O2 -xHost -ftz -fp-speculation=safe -fp-model source -std=gnu99 -gcc-sys -qopenmp
Fortran Compiler ID: Intel
Fortran flags: -O2 -xHost -ftz -fp-speculation=safe -fp-model source  -fpp -i8 -heap-arrays -qopenmp
Definitions: _MOLCAS_;_I8_;_LINUX_;_MOLCAS_MPP_;_SCALAPACK_;_GA_
Parallel: ON (GA=ON)


   ------------------------------------------------------------------------------------------
  |
  |              Project: geo_opt
  |       Submitted from: /home/saruti/conference/good_s+o/meth_PSB3/geo_opt/6-6/manual
  |         Scratch area: /lustre/tmp/slurm/2657487/geo_opt
  |      Save outputs to: /home/saruti/conference/good_s+o/meth_PSB3/geo_opt/6-6/manual
  |               Molcas: /usr/local/easybuild/software/OpenMolcas/22.10-intel-2022a
  |
  | Scratch area is empty
  |
  |        MOLCAS_COLOR = YES
  |       MOLCAS_DRIVER = /usr/local/easybuild/software/OpenMolcas/22.10-intel-2022a/pymolcas
  | MOLCAS_KEEP_WORKDIR = NO
  |       MOLCAS_MOLDEN = YES
  |  MOLCAS_NEW_WORKDIR = YES
  |       MOLCAS_NPROCS = 1
  |        MOLCAS_PRINT = NORMAL
  |         MOLCAS_SAVE = INCR
  |       MOLCAS_SOURCE = /usr/local/easybuild/software/OpenMolcas/22.10-intel-2022a
  |    MOLCAS_STRUCTURE = 0
  |         MOLCAS_TRAP = YES
  |
   ------------------------------------------------------------------------------------------

++ ---------   Input file   ---------

&GATEWAY
 title=PSB3-meth caspt2 optimization
 coord=meth-PSB3.xyz
 basis=ANO-L-VDZP
 group=nosym
 RICD

&SEWARD
CHOLESKY

&SCF
Charge = +1

>>> EXPORT molcas_maxiter = 500

>>> DO WHILE

  &SEWARD
  CHOLESKY

  &RASSCF
  FROZen=7
  Spin=1
  CHARge=1
  nactel=6
  ras2=6

  &CASPT2

  &SLAPAF

>>> END DO

-- ----------------------------------

--- Start Module: gateway at Sun Apr 21 01:25:07 2024 ---
 
()()()()()()()()()()()()()()()()()()()()()()()()()()()()()()()()()()()()()()()()()()()()()()()()()()

                                              &GATEWAY

                       only a single process is used, running in SERIAL mode
                        available to each process: 24 GB of memory, 1 thread
                                            pid: 608149
()()()()()()()()()()()()()()()()()()()()()()()()()()()()()()()()()()()()()()()()()()()()()()()()()()
 
 
 Title:
                                 PSB3-meth caspt2 optimization                          
 
 
++    Symmetry information:
      ---------------------
 
                    Character Table for C1 
 
                             E  
                    a        1  x, y, xy, Rz, z, xz, Ry, yz, Rx, I
--
 
 
++    Basis set information:
      ----------------------
 
 
      Basis set label: H.ANO-L...2S1P.
 
      Electronic valence basis set:
      ------------------
      Associated Effective Charge   1.000000 au
      Associated Actual Charge      1.000000 au
      Nuclear Model: Point charge
 
      Shell  nPrim  nBasis  Cartesian Spherical Contaminant
         s       8       2        X                  
         p       4       1        X                  
 
 
      Basis set label: N.ANO-L...3S2P1D.
 
      Electronic valence basis set:
      ------------------
      Associated Effective Charge   7.000000 au
      Associated Actual Charge      7.000000 au
      Nuclear Model: Point charge
 
      Shell  nPrim  nBasis  Cartesian Spherical Contaminant
         s      14       3        X                  
         p       9       2        X                  
         d       4       1                 X         
 
 
      Basis set label: C.ANO-L...3S2P1D.
 
      Electronic valence basis set:
      ------------------
      Associated Effective Charge   6.000000 au
      Associated Actual Charge      6.000000 au
      Nuclear Model: Point charge
 
      Shell  nPrim  nBasis  Cartesian Spherical Contaminant
         s      14       3        X                  
         p       9       2        X                  
         d       4       1                 X         
--
 
 
++    Molecular structure info:
      -------------------------
 
                    ************************************************ 
                    **** Cartesian Coordinates / Bohr, Angstrom **** 
                    ************************************************ 
 
     Center  Label                x              y              z                     x              y              z
        1      H1               1.028043       5.311423       1.681178              0.544017       2.810684       0.889641
        2      H2               1.028043       5.311423      -1.681178              0.544017       2.810684      -0.889641
        3      H3               3.832792       6.136615       0.000000              2.028226       3.247357       0.000000
        4      H4              -2.201718      -1.859710       0.000000             -1.165099      -0.984116       0.000000
        5      H5               2.139663      -1.794692       0.000000              1.132261      -0.949710       0.000000
        6      H6              -2.622346       4.017116       0.000000             -1.387686       2.125766       0.000000
        7      H7               6.680016       3.071319       0.000000              3.534912       1.625272       0.000000
        8      H8               6.032671      -0.142773       0.000000              3.192352      -0.075552       0.000000
        9      H9              -7.131609       2.990813       0.000000             -3.773885       1.582670       0.000000
       10      H10             -6.385662      -0.454468       0.000000             -3.379147      -0.240494       0.000000
       11      N11              5.373466       1.663857       0.000000              2.843516       0.880475       0.000000
       12      C12              2.928219       2.160923       0.000000              1.549547       1.143511       0.000000
       13      C13              1.224410       0.058975       0.000000              0.647930       0.031208       0.000000
       14      C14             -1.371389       0.037643       0.000000             -0.725708       0.019920       0.000000
       15      C15             -3.209407       2.044576       0.000000             -1.698345       1.081943       0.000000
       16      C16             -5.706593       1.498207       0.000000             -3.019799       0.792817       0.000000
       17      C17              2.176307       4.886503       0.000000              1.151652       2.585826       0.000000
 
                    ************************************************* 
                    **** InterNuclear Distances / Bohr, Angstrom **** 
                    ************************************************* 
 
     Atom centers         Bohr        Angstrom
   11 N11       7 H7      1.920422        1.016244
   11 N11       8 H8      1.923138        1.017681
   15 C15       6 H6      2.058046        1.089071
   16 C16       9 H9      2.063624        1.092023
   13 C13       5 H5      2.067309        1.093973
   16 C16      10 H10     2.067383        1.094012
   14 C14       4 H4      2.071085        1.095971
   17 C17       3 H3      2.075265        1.098183
   17 C17       1 H1      2.079766        1.100565
   17 C17       2 H2    
   12 C12      11 N11     2.495257        1.320433
   16 C16      15 C15     2.556259        1.352714
   14 C14      13 C13     2.595887        1.373684
   13 C13      12 C12     2.705763        1.431828
   15 C15      14 C14     2.721413        1.440110
   17 C17      12 C12     2.827395        1.496193
    8 H8        7 H7      3.278634        1.734978
    2 H2        1 H1      3.362356        1.779282
    3 H3        1 H1      3.372524        1.784663
    3 H3        2 H2    
   10 H10       9 H9      3.525109        1.865407
   12 C12       7 H7      3.860673        2.042980
   12 C12       8 H8      3.865829        2.045708
   13 C13       4 H4      3.926793        2.077969
   14 C14       5 H5      3.960422        2.095765
   16 C16       6 H6      3.982145        2.107260
   15 C15       4 H4      4.032231        2.133765
   12 C12       5 H5      4.033448        2.134409
   15 C15       9 H9      4.034728        2.135086
   15 C15      10 H10     4.041512        2.138676
   12 C12       1 H1      4.045081        2.140565
   12 C12       2 H2    
   12 C12       3 H3      4.077301        2.157615
   14 C14       6 H6      4.171462        2.207442
    7 H7        3 H3      4.183626        2.213880
    6 H6        1 H1      4.222196        2.234290
    6 H6        2 H2    
    8 H8        5 H5      4.228989        2.237885
    5 H5        4 H4      4.341868        2.297618
   10 H10       4 H4      4.413626        2.335590
   13 C13      11 N11     4.448631        2.354114
   17 C17      11 N11     4.539524        2.402213
   16 C16      14 C14     4.574630        2.420790
    9 H9        6 H6      4.624581        2.447223
   11 N11       3 H3      4.730671        2.503363
   11 N11       5 H5      4.734875        2.505588
   14 C14      12 C12     4.795305        2.537566
   13 C13       8 H8      4.812491        2.546661
   16 C16       4 H4      4.853839        2.568541
   17 C17       7 H7      4.855748        2.569551
   15 C15      13 C13     4.858122        2.570807
   17 C17       6 H6      4.876772        2.580677
   17 C17      13 C13     4.920481        2.603807
   14 C14      10 H10     5.038364        2.666187
   13 C13       1 H1      5.518436        2.920230
   13 C13       2 H2    
   13 C13       6 H6      5.519458        2.920771
   15 C15       1 H1      5.608443        2.967860
   15 C15       2 H2    
--
 
 
            Nuclear Potential Energy            277.60114726 au
 
--- Stop Module: gateway at Sun Apr 21 01:25:09 2024 /rc=_RC_ALL_IS_WELL_ ---
*** files: geo_opt.RICDLib xmldump
    saved to directory /home/saruti/conference/good_s+o/meth_PSB3/geo_opt/6-6/manual
--- Module gateway spent 1 second ---

--- Start Module: seward at Sun Apr 21 01:25:09 2024 ---
 
()()()()()()()()()()()()()()()()()()()()()()()()()()()()()()()()()()()()()()()()()()()()()()()()()()

                                              &SEWARD

                       only a single process is used, running in SERIAL mode
                        available to each process: 24 GB of memory, 1 thread
                                            pid: 608165
()()()()()()()()()()()()()()()()()()()()()()()()()()()()()()()()()()()()()()()()()()()()()()()()()()
 
               SEWARD will generate:
                  Multipole Moment integrals up to order  2
                  Kinetic Energy integrals
                  Nuclear Attraction integrals (point charge)
                  One-Electron Hamiltonian integrals
                  Velocity integrals
                  Orbital angular momentum around ( 0.3139  1.8141 -0.0000 )
                  Velocity quadrupole around ( 0.3139  1.8141 -0.0000 )
                  Cholesky decomposed two-electron repulsion integrals
                   - CD Threshold:   0.10E-03
 
 Title:
                                 PSB3-meth caspt2 optimization                          
 
 
                   Integrals are discarded if absolute value <: 0.10E-39
                   Integral cutoff threshold is set to       <: 0.10E-39
 
            Nuclear Potential Energy            277.60114726 au
 
 
      Basis set specifications :
      Symmetry species         a  
      Basis functions          148
 
      Cholesky vectors         624
 
 
 
      Input file to MOLDEN was generated!
 
--- Stop Module: seward at Sun Apr 21 01:25:49 2024 /rc=_RC_ALL_IS_WELL_ ---
*** files: geo_opt.GssOrb geo_opt.guessorb.h5 geo_opt.guessorb.molden xmldump
    saved to directory /home/saruti/conference/good_s+o/meth_PSB3/geo_opt/6-6/manual
--- Module seward spent 39 seconds ---

*** symbolic link created: INPORB -> geo_opt.GssOrb
--- Start Module: scf at Sun Apr 21 01:25:49 2024 ---
 
()()()()()()()()()()()()()()()()()()()()()()()()()()()()()()()()()()()()()()()()()()()()()()()()()()

                                                &SCF

                       only a single process is used, running in SERIAL mode
                        available to each process: 24 GB of memory, 1 thread
                                            pid: 608465
()()()()()()()()()()()()()()()()()()()()()()()()()()()()()()()()()()()()()()()()()()()()()()()()()()
 
++    Input section:
      --------------
 
      Header of the integral files:
      
       Integrals generated by Gateway/Seward, Sun Apr 21 01:25:09 2024
 
 
      Cartesian coordinates in Angstrom:
      -----------------------------------------------------
      No.  Label        X            Y            Z        
      -----------------------------------------------------
       1   H1         0.54401700   2.81068400   0.88964100
       2   H2         0.54401700   2.81068400  -0.88964100
       3   H3         2.02822600   3.24735700   0.00000000
       4   H4        -1.16509900  -0.98411600   0.00000000
       5   H5         1.13226100  -0.94971000   0.00000000
       6   H6        -1.38768600   2.12576600   0.00000000
       7   H7         3.53491200   1.62527200   0.00000000
       8   H8         3.19235200  -0.07555200   0.00000000
       9   H9        -3.77388500   1.58267000   0.00000000
      10   H10       -3.37914700  -0.24049400   0.00000000
      11   N11        2.84351600   0.88047500   0.00000000
      12   C12        1.54954700   1.14351100   0.00000000
      13   C13        0.64793000   0.03120800   0.00000000
      14   C14       -0.72570800   0.01992000   0.00000000
      15   C15       -1.69834500   1.08194300   0.00000000
      16   C16       -3.01979900   0.79281700   0.00000000
      17   C17        1.15165200   2.58582600   0.00000000
      -----------------------------------------------------
      Nuclear repulsion energy =  277.60114726
--
 
++    Orbital specifications:
      -----------------------
 
      Symmetry species               1
                                     a
      Frozen orbitals                0
      Aufbau                        26
      Start temperature = 0.500
      End temperature   = 0.010
      Temperature Factor= 0.460
      Deleted orbitals               0
      Total number of orbitals     148
      Number of basis functions    148
--
 
      Molecular charge                           1.000
 
++    Optimization specifications:
      ----------------------------
 
      SCF Algorithm: LK-Cholesky
      The actual AO density is used
      Number of density matrices in core                5
      Maximum number of NDDO SCF iterations           400
      Maximum number of HF SCF iterations             400
      Threshold for SCF energy change            0.10E-08
      Threshold for density matrix               0.10E-03
      Threshold for Fock matrix                  0.15E-03
      Threshold for linear dependence            0.10E-08
      Threshold at which DIIS is turned on       0.15E+00
      Threshold at which QNR/C2DIIS is turned on 0.75E-01
      Threshold for Norm(delta) (QNR/C2DIIS)     0.20E-04
      DIIS extrapolation of the SCF procedure
      All orbitals punched on: SCFORB
--
 
      Input vectors read from INPORB
      Orbital file label: *Guess orbitals
 
 
++ Convergence information
                                   SCF        iterations: Energy and convergence statistics
 
Iter     Tot. SCF        One-elec.       Two-elec.     Energy      Max Dij or  Max Fij      DNorm      TNorm      AccCon     Time
         Energy          Energy          Energy        Change      Delta Norm                                                in Sec.
   1  -273.128568559  -909.829602458   359.099886636   0.00E+00    0.19E+00*   0.38E+00*    0.15E+02   0.19E+03   None         7.
   2  -280.348799913  -912.433115997   354.483168821  -0.72E+01*   0.39E+00*   0.28E+00*    0.19E+02   0.19E+03   EDIIS        6.
   3  -282.857425102  -925.055843204   364.597270840  -0.25E+01*   0.46E+00*   0.54E+00*    0.87E+01   0.19E+03   EDIIS        5.
   4  -270.289088780  -923.485147516   375.594911474   0.13E+02*   0.25E+00*   0.29E+00*    0.17E+02   0.19E+03   EDIIS        3.
   5  -286.997848368  -928.751928918   364.152933287  -0.17E+02*   0.49E+00*   0.24E+00*    0.89E+01   0.19E+03   EDIIS        2.
   6  -287.114031719  -925.749992501   361.034813520  -0.12E+00*   0.14E+00*   0.15E+00*    0.87E+01   0.19E+03   EDIIS        2.
   7  -287.299957370  -927.327513786   362.426409154  -0.19E+00*   0.10E+00*   0.41E-01*    0.87E+01   0.19E+03   EDIIS        2.
   8  -287.306798732  -927.019939933   362.111993938  -0.68E-02*   0.56E-01*   0.27E-01*    0.87E+01   0.19E+03   EDIIS        2.
 
       Fermi aufbau procedure completed!
      nOcc=   26
 
   9  -287.309217386  -927.219144263   362.308779615  -0.24E-02*   0.33E-01*   0.18E-01*    0.87E+01   0.19E+03   EDIIS        2.
  10  -287.310342609  -927.109225239   362.197735367  -0.11E-02*   0.20E-01*   0.10E-01*    0.87E+01   0.19E+03   EDIIS        2.
  11  -287.310643589  -927.163205451   362.251414600  -0.30E-03*   0.92E-02*   0.19E-02*    0.87E+01   0.19E+03   EDIIS        2.
  12  -287.310786373  -927.138422633   362.226488997  -0.14E-03*   0.66E-02*   0.16E-02*    0.87E+01   0.19E+03   EDIIS        2.
  13  -287.310812146  -927.147866854   362.235907445  -0.26E-04*   0.15E-02*   0.43E-03*    0.87E+01   0.19E+03   c2DIIS       2.
  14  -287.310830338  -927.145158276   362.233180675  -0.18E-04*   0.72E-03*   0.15E-03*    0.87E+01   0.19E+03   QNRc2DIIS    2.
  15  -287.310831316  -927.144403693   362.232425115  -0.98E-06*   0.82E-03*   0.96E-04     0.87E+01   0.19E+03   QNRc2DIIS    2.
  16  -287.310831672  -927.145166487   362.233187552  -0.36E-06*   0.79E-04*   0.30E-04     0.87E+01   0.19E+03   QNRc2DIIS    2.
  17  -287.310831688  -927.144623498   362.232644548  -0.15E-07*   0.37E-04*   0.41E-05     0.87E+01   0.19E+03   QNRc2DIIS    2.
  18  -287.310831687  -927.144512751   362.232533801   0.21E-09    0.85E-05    0.23E-05     0.87E+01   0.19E+03   QNRc2DIIS    2.
  19  -287.310831687  -927.144568629   362.232589679  -0.20E-09    0.11E-05    0.21E-06     0.87E+01   0.19E+03   QNRc2DIIS    2.
 
       Convergence after 19 Macro Iterations
--
 
 *****************************************************************************************************************************
 *                                                                                                                           *
 *                                             SCF/KS-DFT Program, Final results                                             *
 *                                                                                                                           *
 *                                                                                                                           *
 *                                                                                                                           *
 *                                                       Final Results                                                       *
 *                                                                                                                           *
 *****************************************************************************************************************************
 
::    Total SCF energy                               -287.3108316875
      One-electron energy                            -927.1445686293
      Two-electron energy                             362.2325896793
      Nuclear repulsion energy                        277.6011472625
      Kinetic energy (interpolated)                   287.3263003147
      Virial theorem                                    0.9999461636
      Total spin, S(S+1)                                0.0000000000
      Total spin, S                                     0.0000000000
      Max non-diagonal density matrix element           0.0000010222
      Max non-diagonal Fock matrix element              0.0000000794
 
 
      All orbitals with orbital energies smaller than  E(LUMO)+0.5 are printed
 
++    Molecular orbitals:
      -------------------
 
      Title: SCF orbitals

      Molecular orbitals for symmetry species 1: a  
 
          Orbital            1         2         3         4         5         6         7         8         9        10    
          Energy          -15.7977  -11.5357  -11.4577  -11.4200  -11.4167  -11.4099  -11.4006   -1.4659   -1.2800   -1.2144
          Occ. No.          2.0000    2.0000    2.0000    2.0000    2.0000    2.0000    2.0000    2.0000    2.0000    2.0000
 
        1 H1     1s         0.0001    0.0001    0.0000    0.0001    0.0014   -0.0001   -0.0001    0.0395    0.0547   -0.1092
        2 H1     2s         0.0001    0.0001    0.0000    0.0001    0.0003   -0.0001   -0.0000    0.0134    0.0135    0.0008
        3 H1     2px        0.0000   -0.0000   -0.0000   -0.0000    0.0001   -0.0000   -0.0000    0.0021    0.0027   -0.0082
        4 H1     2py       -0.0000    0.0000   -0.0000    0.0000   -0.0000    0.0000    0.0000   -0.0011   -0.0027    0.0055
        5 H1     2pz        0.0000   -0.0000   -0.0000   -0.0000   -0.0002    0.0000    0.0000   -0.0050   -0.0059    0.0127
        6 H2     1s         0.0001    0.0001    0.0000    0.0001    0.0014   -0.0001   -0.0001    0.0395    0.0547   -0.1092
        7 H2     2s         0.0001    0.0001    0.0000    0.0001    0.0003   -0.0001   -0.0000    0.0134    0.0135    0.0008
        8 H2     2px        0.0000   -0.0000   -0.0000   -0.0000    0.0001   -0.0000   -0.0000    0.0021    0.0027   -0.0082
        9 H2     2py       -0.0000    0.0000   -0.0000    0.0000   -0.0000    0.0000    0.0000   -0.0011   -0.0027    0.0055
       10 H2     2pz       -0.0000    0.0000    0.0000    0.0000    0.0002   -0.0000   -0.0000    0.0050    0.0059   -0.0127
       11 H3     1s         0.0002    0.0004   -0.0001    0.0003    0.0009    0.0002    0.0003    0.0401    0.0062   -0.0865
       12 H3     2s         0.0002    0.0003   -0.0000    0.0003   -0.0001    0.0001    0.0002    0.0091   -0.0145    0.0096
       13 H3     2px        0.0000   -0.0000    0.0000   -0.0000   -0.0002   -0.0000   -0.0000   -0.0062   -0.0017    0.0099
       14 H3     2py        0.0000   -0.0000   -0.0000   -0.0000   -0.0001   -0.0000   -0.0000   -0.0027   -0.0019    0.0098
       15 H3     2pz        0.0000    0.0000    0.0000   -0.0000   -0.0000   -0.0000   -0.0000    0.0000   -0.0000    0.0000
       16 H4     1s         0.0002    0.0001   -0.0001    0.0007   -0.0001    0.0006    0.0001   -0.0038    0.1208    0.0292
       17 H4     2s         0.0001    0.0001   -0.0009    0.0005   -0.0000    0.0004   -0.0000   -0.0082   -0.0016   -0.0046
       18 H4     2px        0.0000   -0.0000    0.0001    0.0001   -0.0000   -0.0001    0.0001   -0.0007    0.0089   -0.0006
       19 H4     2py        0.0000    0.0000    0.0001    0.0000    0.0000    0.0000    0.0000    0.0002    0.0192    0.0056
       20 H4     2pz       -0.0000   -0.0000    0.0000   -0.0000    0.0000    0.0000   -0.0000    0.0000    0.0000   -0.0000
       21 H5     1s         0.0004    0.0009    0.0007    0.0002    0.0004    0.0002    0.0004    0.0473    0.0765   -0.0322
       22 H5     2s         0.0003    0.0006    0.0004    0.0001    0.0003   -0.0008    0.0003    0.0123   -0.0086    0.0181
       23 H5     2px       -0.0000   -0.0001    0.0000    0.0000   -0.0000   -0.0001    0.0000   -0.0036   -0.0059    0.0006
       24 H5     2py       -0.0000    0.0000    0.0000    0.0000    0.0000    0.0002    0.0000    0.0070    0.0128   -0.0074
       25 H5     2pz       -0.0000    0.0000    0.0000   -0.0000   -0.0000   -0.0000   -0.0000   -0.0000    0.0000    0.0000
       26 H6     1s         0.0004    0.0011    0.0010    0.0010   -0.0002    0.0011    0.0004    0.0092    0.0938    0.0637
       27 H6     2s         0.0003    0.0009    0.0007    0.0006   -0.0001    0.0008   -0.0005    0.0034   -0.0006   -0.0160
       28 H6     2px       -0.0000   -0.0000   -0.0001    0.0000    0.0001   -0.0000   -0.0001    0.0006   -0.0028   -0.0045
       29 H6     2py       -0.0000   -0.0001   -0.0001   -0.0001    0.0001   -0.0001   -0.0002    0.0000   -0.0156   -0.0118
       30 H6     2pz        0.0000    0.0000    0.0000   -0.0000   -0.0000    0.0000   -0.0000    0.0000    0.0000   -0.0000
       31 H7     1s         0.0004   -0.0004    0.0005    0.0001   -0.0006    0.0003    0.0003    0.1476   -0.0848    0.1045
       32 H7     2s        -0.0003   -0.0005    0.0004    0.0001   -0.0004    0.0003    0.0002   -0.0167   -0.0055   -0.0080
       33 H7     2px       -0.0001   -0.0000   -0.0000   -0.0000    0.0001   -0.0000   -0.0000   -0.0248    0.0098   -0.0112
       34 H7     2py       -0.0000    0.0001   -0.0001   -0.0000    0.0001   -0.0000   -0.0001   -0.0231    0.0108   -0.0148
       35 H7     2pz        0.0000    0.0000   -0.0000   -0.0000   -0.0000   -0.0000   -0.0000    0.0000   -0.0000   -0.0000
       36 H8     1s         0.0003   -0.0007    0.0002    0.0003    0.0007   -0.0003    0.0003    0.1526   -0.0562    0.1114
       37 H8     2s        -0.0003   -0.0006    0.0002    0.0002    0.0005   -0.0002    0.0002   -0.0127    0.0077   -0.0084
       38 H8     2px       -0.0001   -0.0000    0.0000    0.0000   -0.0000    0.0000    0.0000   -0.0142    0.0035   -0.0052
       39 H8     2py        0.0001   -0.0001    0.0000    0.0000    0.0001   -0.0001    0.0000    0.0310   -0.0107    0.0193
       40 H8     2pz        0.0000    0.0000   -0.0000   -0.0000    0.0000    0.0000   -0.0000    0.0000   -0.0000    0.0000
       41 H9     1s         0.0000   -0.0000   -0.0000    0.0004    0.0001    0.0003    0.0005   -0.0015    0.0414    0.0915
       42 H9     2s         0.0000   -0.0000    0.0000   -0.0005    0.0001    0.0003    0.0004   -0.0017   -0.0070    0.0046
       43 H9     2px        0.0000    0.0000    0.0000    0.0001    0.0000    0.0000    0.0000    0.0000    0.0073    0.0125
       44 H9     2py       -0.0000   -0.0000   -0.0000   -0.0001   -0.0000   -0.0000    0.0000    0.0001   -0.0058   -0.0103
       45 H9     2pz       -0.0000    0.0000   -0.0000    0.0000    0.0000   -0.0000   -0.0000   -0.0000   -0.0000   -0.0000
       46 H10    1s         0.0002    0.0004    0.0003    0.0004    0.0001    0.0004    0.0001    0.0011    0.0688    0.0965
       47 H10    2s         0.0001    0.0003    0.0002   -0.0004    0.0001    0.0003    0.0001    0.0005    0.0068    0.0040
       48 H10    2px        0.0000    0.0000   -0.0000    0.0001    0.0000    0.0000    0.0000    0.0002    0.0049    0.0075
       49 H10    2py        0.0000    0.0000    0.0000    0.0001    0.0000    0.0000    0.0000   -0.0001    0.0108    0.0149
       50 H10    2pz       -0.0000   -0.0000   -0.0000    0.0000   -0.0000   -0.0000   -0.0000   -0.0000   -0.0000    0.0000
       51 N11    1s         0.9996   -0.0002   -0.0000   -0.0000    0.0001    0.0001   -0.0000   -0.0569    0.0135   -0.0154
       52 N11    2s        -0.0007    0.0004   -0.0000   -0.0000    0.0005    0.0009   -0.0001    0.5008   -0.1544    0.2177
       53 N11    3s        -0.0027   -0.0001    0.0000    0.0000    0.0004    0.0006   -0.0000   -0.1048    0.0238   -0.0280
       54 N11    2px        0.0005   -0.0000   -0.0003   -0.0002   -0.0001   -0.0002   -0.0003   -0.0930   -0.0234    0.0793
       55 N11    3px        0.0007    0.0006   -0.0003   -0.0002   -0.0002   -0.0002   -0.0003    0.0214    0.0183   -0.0319
       56 N11    2py       -0.0001   -0.0001   -0.0001    0.0001    0.0005   -0.0001    0.0001    0.0221    0.0050   -0.0245
       57 N11    3py       -0.0002   -0.0003   -0.0001    0.0001    0.0006   -0.0001    0.0001   -0.0008    0.0094    0.0068
       58 N11    2pz        0.0000   -0.0000    0.0000    0.0000    0.0000    0.0000    0.0000   -0.0000    0.0000    0.0000
       59 N11    3pz       -0.0000   -0.0000    0.0000    0.0000    0.0000    0.0000    0.0000   -0.0000    0.0000    0.0000
       60 N11    3d2-      -0.0000   -0.0000   -0.0000   -0.0000    0.0000   -0.0000   -0.0000   -0.0055    0.0003    0.0037
       61 N11    3d1-       0.0000    0.0000    0.0000   -0.0000   -0.0000    0.0000    0.0000   -0.0000    0.0000    0.0000
       62 N11    3d0        0.0001    0.0001    0.0000    0.0000   -0.0000   -0.0000    0.0000   -0.0113    0.0029   -0.0036
       63 N11    3d1+      -0.0000   -0.0000    0.0000   -0.0000    0.0000   -0.0000   -0.0000    0.0000    0.0000   -0.0000
       64 N11    3d2+       0.0000    0.0001    0.0000    0.0000    0.0000   -0.0000    0.0000    0.0129    0.0024   -0.0059
       65 C12    1s         0.0001    0.9992   -0.0000    0.0000   -0.0031   -0.0040    0.0000   -0.0467   -0.0107    0.0211
       66 C12    2s         0.0005   -0.0032    0.0001   -0.0000    0.0001    0.0003   -0.0000    0.3008    0.1465   -0.2853
       67 C12    3s         0.0001   -0.0034    0.0001    0.0000   -0.0001   -0.0000    0.0000   -0.0524   -0.0093    0.0153
       68 C12    2px        0.0021    0.0016   -0.0003   -0.0002   -0.0003   -0.0014   -0.0001    0.1275   -0.1062    0.1067
       69 C12    3px        0.0015    0.0004   -0.0002   -0.0001   -0.0001   -0.0010   -0.0001   -0.0483    0.0344   -0.0451
       70 C12    2py       -0.0003    0.0004   -0.0007   -0.0006    0.0010   -0.0005   -0.0007   -0.0440   -0.0467   -0.0241
       71 C12    3py       -0.0002    0.0006   -0.0006   -0.0006    0.0005   -0.0001   -0.0007   -0.0020   -0.0165    0.0350
       72 C12    2pz        0.0000    0.0000    0.0000   -0.0000   -0.0000   -0.0000   -0.0000    0.0000   -0.0000   -0.0000
       73 C12    3pz        0.0000    0.0000    0.0000   -0.0000   -0.0000   -0.0000   -0.0000    0.0000   -0.0000   -0.0000
       74 C12    3d2-      -0.0001   -0.0001    0.0001    0.0000   -0.0001    0.0002    0.0000   -0.0113    0.0159   -0.0077
       75 C12    3d1-       0.0000    0.0000   -0.0000   -0.0000   -0.0000   -0.0000   -0.0000   -0.0000   -0.0000    0.0000
       76 C12    3d0        0.0000   -0.0004    0.0000    0.0000    0.0001    0.0001    0.0000   -0.0219   -0.0072    0.0148
       77 C12    3d1+      -0.0000   -0.0000   -0.0000   -0.0000    0.0000    0.0000   -0.0000   -0.0000   -0.0000   -0.0000
       78 C12    3d2+       0.0003    0.0002    0.0000   -0.0000   -0.0001    0.0000   -0.0000    0.0292   -0.0122    0.0226
       79 C13    1s         0.0001    0.0039    0.0142   -0.0001   -0.0013    0.9990    0.0017   -0.0196   -0.0448    0.0237
       80 C13    2s         0.0004    0.0010    0.0012    0.0001    0.0003   -0.0034    0.0006    0.0563    0.2732   -0.1806
       81 C13    3s         0.0002    0.0004    0.0004    0.0001    0.0002   -0.0042    0.0003   -0.0306   -0.0421    0.0155
       82 C13    2px        0.0003    0.0020   -0.0022   -0.0008    0.0004    0.0015   -0.0012    0.0387   -0.0880   -0.0128
       83 C13    3px        0.0002    0.0014   -0.0014   -0.0007    0.0003    0.0011   -0.0010   -0.0046    0.0042    0.0267
       84 C13    2py        0.0007    0.0022    0.0003   -0.0003    0.0007   -0.0005   -0.0002    0.0422    0.0353   -0.0334
       85 C13    3py        0.0007    0.0015    0.0002   -0.0003    0.0007   -0.0009   -0.0002   -0.0000   -0.0097    0.0321
       86 C13    2pz       -0.0000   -0.0000   -0.0000    0.0000    0.0000    0.0000    0.0000   -0.0000   -0.0000   -0.0000
       87 C13    3pz       -0.0000   -0.0000   -0.0000    0.0000    0.0000    0.0000    0.0000   -0.0000   -0.0000   -0.0000
       88 C13    3d2-       0.0000    0.0005   -0.0001    0.0000    0.0000    0.0002   -0.0000    0.0146    0.0030   -0.0129
       89 C13    3d1-      -0.0000   -0.0000    0.0000   -0.0000   -0.0000    0.0000    0.0000   -0.0000   -0.0000    0.0000
       90 C13    3d0       -0.0000   -0.0000    0.0000   -0.0000   -0.0001   -0.0000   -0.0000   -0.0014   -0.0114    0.0086
       91 C13    3d1+       0.0000    0.0000    0.0000    0.0000   -0.0000   -0.0000    0.0000   -0.0000   -0.0000    0.0000
       92 C13    3d2+      -0.0000   -0.0002    0.0004    0.0000   -0.0000    0.0001    0.0000    0.0010    0.0153    0.0069
       93 C14    1s        -0.0000    0.0001    0.9990   -0.0004    0.0000   -0.0140   -0.0081   -0.0018   -0.0540   -0.0063
       94 C14    2s        -0.0001    0.0004   -0.0032    0.0003   -0.0003    0.0021    0.0004    0.0331    0.3313    0.0731
       95 C14    3s         0.0000    0.0001   -0.0035    0.0002   -0.0001    0.0009    0.0001   -0.0016   -0.0646   -0.0062
       96 C14    2px        0.0005    0.0013   -0.0007   -0.0007    0.0003    0.0029   -0.0018    0.0282    0.0251   -0.0924
       97 C14    3px        0.0004    0.0011   -0.0006   -0.0006    0.0003    0.0019   -0.0012    0.0102   -0.0115    0.0449
       98 C14    2py       -0.0001   -0.0007   -0.0010    0.0012   -0.0004    0.0002    0.0010   -0.0023    0.0651    0.0172
       99 C14    3py       -0.0001   -0.0007   -0.0009    0.0010   -0.0004    0.0002    0.0005   -0.0067    0.0018   -0.0251
      100 C14    2pz        0.0000    0.0000    0.0000   -0.0000   -0.0000   -0.0000   -0.0000    0.0000    0.0000    0.0000
      101 C14    3pz        0.0000    0.0000   -0.0000    0.0000   -0.0000   -0.0000    0.0000    0.0000    0.0000    0.0000
      102 C14    3d2-      -0.0000    0.0001   -0.0001   -0.0001    0.0000    0.0001   -0.0002    0.0026   -0.0139   -0.0170
      103 C14    3d1-       0.0000   -0.0000    0.0000   -0.0000   -0.0000    0.0000   -0.0000    0.0000    0.0000    0.0000
      104 C14    3d0        0.0000    0.0000   -0.0004    0.0000    0.0000   -0.0000    0.0001   -0.0011   -0.0163   -0.0041
      105 C14    3d1+       0.0000    0.0000    0.0000    0.0000   -0.0000   -0.0000    0.0000   -0.0000   -0.0000    0.0000
      106 C14    3d2+       0.0000    0.0001    0.0001   -0.0000   -0.0000    0.0004   -0.0000    0.0037    0.0168   -0.0080
      107 C15    1s         0.0000    0.0001    0.0080    0.0394    0.0000   -0.0017    0.9983    0.0009   -0.0443   -0.0370
      108 C15    2s         0.0001    0.0006    0.0005    0.0006    0.0007    0.0000   -0.0031    0.0190    0.2677    0.2830
      109 C15    3s         0.0001    0.0003    0.0001    0.0001    0.0004    0.0001   -0.0039    0.0036   -0.0442   -0.0282
      110 C15    2px        0.0001    0.0001    0.0015   -0.0027    0.0003    0.0001    0.0006   -0.0011    0.0123   -0.0675
      111 C15    3px        0.0001    0.0001    0.0010   -0.0019    0.0003    0.0001    0.0001   -0.0061   -0.0006    0.0194
      112 C15    2py       -0.0004   -0.0011   -0.0013   -0.0004   -0.0001   -0.0010    0.0009   -0.0119   -0.0758   -0.0475
      113 C15    3py       -0.0003   -0.0009   -0.0008   -0.0002   -0.0001   -0.0009    0.0011   -0.0086    0.0069    0.0066
      114 C15    2pz       -0.0000   -0.0000   -0.0000    0.0000    0.0000    0.0000    0.0000   -0.0000   -0.0000   -0.0000
      115 C15    3pz       -0.0000   -0.0000   -0.0000    0.0000    0.0000    0.0000   -0.0000   -0.0000   -0.0000   -0.0000
      116 C15    3d2-      -0.0000   -0.0001   -0.0004    0.0002    0.0000   -0.0001   -0.0000   -0.0015   -0.0132    0.0021
      117 C15    3d1-       0.0000   -0.0000    0.0000   -0.0000   -0.0000    0.0000   -0.0000    0.0000    0.0000    0.0000
      118 C15    3d0        0.0000    0.0000    0.0000    0.0000   -0.0001    0.0000   -0.0001   -0.0006   -0.0128   -0.0116
      119 C15    3d1+       0.0000    0.0000   -0.0000   -0.0000    0.0000    0.0000   -0.0000    0.0000   -0.0000   -0.0000
      120 C15    3d2+       0.0000    0.0000    0.0001    0.0005   -0.0000    0.0001    0.0001    0.0001    0.0117    0.0117
      121 C16    1s        -0.0000   -0.0001    0.0002    0.9985    0.0000    0.0002   -0.0394   -0.0012   -0.0281   -0.0407
      122 C16    2s        -0.0000   -0.0002    0.0006   -0.0022    0.0000   -0.0001    0.0021   -0.0027    0.1442    0.2204
      123 C16    3s         0.0000   -0.0001    0.0003   -0.0029    0.0000    0.0001    0.0009   -0.0019   -0.0371   -0.0491
      124 C16    2px        0.0001    0.0001    0.0002   -0.0009    0.0000    0.0004    0.0017   -0.0010    0.0774    0.0971
      125 C16    3px        0.0001    0.0001    0.0001   -0.0007    0.0000    0.0003    0.0008   -0.0015   -0.0152   -0.0119
      126 C16    2py        0.0001    0.0003    0.0004   -0.0002    0.0001    0.0001    0.0001    0.0009    0.0160    0.0135
      127 C16    3py        0.0001    0.0003    0.0004   -0.0002    0.0000    0.0001   -0.0001    0.0008    0.0078   -0.0025
      128 C16    2pz        0.0000    0.0000    0.0000   -0.0000   -0.0000    0.0000   -0.0000    0.0000    0.0000   -0.0000
      129 C16    3pz        0.0000    0.0000    0.0000   -0.0000    0.0000    0.0000    0.0000    0.0000    0.0000   -0.0000
      130 C16    3d2-       0.0000    0.0000    0.0000    0.0000    0.0000    0.0000    0.0002    0.0000    0.0036    0.0062
      131 C16    3d1-       0.0000    0.0000   -0.0000    0.0000   -0.0000   -0.0000    0.0000    0.0000    0.0000    0.0000
      132 C16    3d0        0.0000    0.0000    0.0000   -0.0003    0.0000   -0.0000    0.0000   -0.0003   -0.0026   -0.0057
      133 C16    3d1+       0.0000    0.0000    0.0000   -0.0000    0.0000    0.0000   -0.0000    0.0000    0.0000   -0.0000
      134 C16    3d2+       0.0000    0.0000    0.0000    0.0001   -0.0000    0.0000    0.0005   -0.0000    0.0157    0.0162
      135 C17    1s         0.0001    0.0031    0.0000    0.0000    0.9994    0.0014    0.0002   -0.0158   -0.0139    0.0412
      136 C17    2s         0.0005    0.0010    0.0005    0.0003   -0.0019    0.0003    0.0006    0.0572    0.0777   -0.2485
      137 C17    3s         0.0003    0.0004    0.0002    0.0002   -0.0035    0.0002    0.0003   -0.0243   -0.0178    0.0470
      138 C17    2px       -0.0001    0.0002    0.0003   -0.0000    0.0003    0.0001   -0.0000    0.0374    0.0110   -0.0136
      139 C17    3px       -0.0001    0.0001    0.0002   -0.0000    0.0001    0.0001    0.0000    0.0117    0.0182   -0.0080
      140 C17    2py       -0.0004   -0.0013   -0.0001   -0.0004    0.0000   -0.0002   -0.0003   -0.0619   -0.0363    0.0733
      141 C17    3py       -0.0003   -0.0006   -0.0001   -0.0003    0.0006   -0.0002   -0.0002   -0.0089    0.0005   -0.0018
      142 C17    2pz       -0.0000   -0.0000   -0.0000    0.0000    0.0000    0.0000    0.0000   -0.0000   -0.0000    0.0000
      143 C17    3pz       -0.0000   -0.0000   -0.0000    0.0000    0.0000    0.0000    0.0000   -0.0000   -0.0000    0.0000
      144 C17    3d2-       0.0000   -0.0002   -0.0000   -0.0000   -0.0000   -0.0001   -0.0000   -0.0096   -0.0003    0.0034
      145 C17    3d1-      -0.0000   -0.0000   -0.0000   -0.0000   -0.0000   -0.0000   -0.0000   -0.0000   -0.0000    0.0000
      146 C17    3d0       -0.0000   -0.0001   -0.0000   -0.0000   -0.0000   -0.0000    0.0000   -0.0044   -0.0042    0.0068
      147 C17    3d1+       0.0000    0.0000    0.0000   -0.0000   -0.0000   -0.0000   -0.0000    0.0000    0.0000   -0.0000
      148 C17    3d2+      -0.0001   -0.0004   -0.0000   -0.0000    0.0000   -0.0000   -0.0000   -0.0106   -0.0073    0.0125
 
          Orbital           11        12        13        14        15        16        17        18        19        20    
          Energy           -1.1698   -1.0705   -0.9819   -0.9486   -0.9041   -0.8548   -0.8137   -0.7798   -0.7742   -0.7449
          Occ. No.          2.0000    2.0000    2.0000    2.0000    2.0000    2.0000    2.0000    2.0000    2.0000    2.0000
 
        1 H1     1s         0.1527    0.0832    0.0703    0.0712   -0.0509    0.0464    0.0083    0.2678    0.0618   -0.1783
        2 H1     2s         0.0013   -0.0114   -0.0273   -0.0097    0.0205   -0.0010    0.0082   -0.0511   -0.0110    0.0387
        3 H1     2px        0.0117    0.0065    0.0055    0.0025   -0.0031    0.0034   -0.0016    0.0163    0.0035    0.0018
        4 H1     2py       -0.0068   -0.0021   -0.0010   -0.0020   -0.0005    0.0030   -0.0017   -0.0076    0.0060    0.0054
        5 H1     2pz       -0.0178   -0.0096   -0.0084   -0.0075    0.0053   -0.0048   -0.0003   -0.0137   -0.0055    0.0159
        6 H2     1s         0.1527    0.0832    0.0703    0.0712   -0.0509    0.0464    0.0083   -0.2678    0.0618   -0.1783
        7 H2     2s         0.0013   -0.0114   -0.0273   -0.0097    0.0205   -0.0010    0.0082    0.0511   -0.0110    0.0387
        8 H2     2px        0.0117    0.0065    0.0055    0.0025   -0.0031    0.0034   -0.0016   -0.0163    0.0035    0.0018
        9 H2     2py       -0.0068   -0.0021   -0.0010   -0.0020   -0.0005    0.0030   -0.0017    0.0076    0.0060    0.0054
       10 H2     2pz        0.0178    0.0096    0.0084    0.0075   -0.0053    0.0048    0.0003   -0.0137    0.0055   -0.0159
       11 H3     1s         0.1398    0.1218    0.0680   -0.0244   -0.0457    0.1253   -0.0601    0.0000    0.1613    0.2742
       12 H3     2s        -0.0106    0.0085   -0.0081   -0.0063    0.0382   -0.0338    0.0101    0.0000   -0.0116   -0.0704
       13 H3     2px       -0.0154   -0.0119   -0.0077   -0.0004    0.0071   -0.0107    0.0029   -0.0000   -0.0123   -0.0109
       14 H3     2py       -0.0149   -0.0099   -0.0044    0.0029    0.0022   -0.0063    0.0032   -0.0000   -0.0038   -0.0194
       15 H3     2pz       -0.0000    0.0000   -0.0000   -0.0000   -0.0000   -0.0000    0.0000    0.0124    0.0000   -0.0000
       16 H4     1s        -0.0657    0.1128   -0.0119   -0.1663   -0.2072   -0.0362   -0.0990    0.0000   -0.1951   -0.2152
       17 H4     2s        -0.0015   -0.0236    0.0160    0.0016    0.0109   -0.0007   -0.0015   -0.0000    0.0444    0.0119
       18 H4     2px       -0.0063    0.0061    0.0053   -0.0110   -0.0047    0.0029    0.0037    0.0000   -0.0116   -0.0031
       19 H4     2py       -0.0088    0.0158   -0.0043   -0.0151   -0.0206   -0.0050   -0.0100   -0.0000   -0.0123   -0.0152
       20 H4     2pz       -0.0000   -0.0000    0.0000   -0.0000   -0.0000    0.0000   -0.0000    0.0021    0.0000   -0.0000
       21 H5     1s        -0.1281   -0.0440    0.1450    0.0083   -0.0520    0.2361   -0.2264    0.0000    0.0043   -0.0495
       22 H5     2s        -0.0067    0.0171   -0.0013    0.0183   -0.0325   -0.0263    0.0224    0.0000   -0.0100    0.0065
       23 H5     2px        0.0098   -0.0041   -0.0074    0.0051    0.0004   -0.0134   -0.0003    0.0000    0.0002   -0.0014
       24 H5     2py       -0.0166   -0.0090    0.0146    0.0019   -0.0032    0.0177   -0.0206    0.0000    0.0014   -0.0054
       25 H5     2pz       -0.0000    0.0000    0.0000   -0.0000    0.0000    0.0000    0.0000    0.0051    0.0000   -0.0000
       26 H6     1s         0.0721   -0.0089   -0.0439    0.1879    0.1264    0.2135    0.1520    0.0000   -0.0205   -0.1378
       27 H6     2s         0.0035   -0.0087    0.0373   -0.0219   -0.0339   -0.0080    0.0028    0.0000    0.0022   -0.0031
       28 H6     2px       -0.0036    0.0051   -0.0035   -0.0023   -0.0049   -0.0094    0.0015   -0.0000    0.0088   -0.0053
       29 H6     2py       -0.0101   -0.0012    0.0082   -0.0207   -0.0126   -0.0169   -0.0115   -0.0000   -0.0004    0.0073
       30 H6     2pz       -0.0000    0.0000   -0.0000   -0.0000   -0.0000   -0.0000    0.0000    0.0021    0.0000   -0.0000
       31 H7     1s         0.0174    0.1885    0.1159   -0.1094    0.3359   -0.0442   -0.1819   -0.0000    0.0834   -0.0783
       32 H7     2s         0.0110   -0.0085   -0.0022    0.0100   -0.0359    0.0085    0.0127    0.0000    0.0031    0.0233
       33 H7     2px       -0.0031   -0.0166   -0.0031    0.0169   -0.0288   -0.0021    0.0125    0.0000   -0.0096    0.0072
       34 H7     2py        0.0008   -0.0226   -0.0195    0.0020   -0.0274    0.0090    0.0136   -0.0000   -0.0012    0.0059
       35 H7     2pz       -0.0000   -0.0000   -0.0000   -0.0000   -0.0000    0.0000    0.0000    0.0135    0.0000   -0.0000
       36 H8     1s        -0.0936    0.0506    0.2224    0.2705   -0.2015   -0.0909    0.0742    0.0000   -0.1349    0.1177
       37 H8     2s        -0.0155   -0.0187   -0.0025   -0.0220    0.0192    0.0220   -0.0237    0.0000    0.0142   -0.0214
       38 H8     2px        0.0044    0.0041   -0.0028   -0.0121    0.0202   -0.0024   -0.0080   -0.0000    0.0040   -0.0039
       39 H8     2py       -0.0132    0.0122    0.0305    0.0315   -0.0175   -0.0121    0.0069    0.0000   -0.0119    0.0102
       40 H8     2pz       -0.0000   -0.0000    0.0000    0.0000   -0.0000   -0.0000    0.0000    0.0129    0.0000   -0.0000
       41 H9     1s         0.0855   -0.1128    0.1342   -0.0845    0.0307    0.0232    0.2449   -0.0000   -0.0064   -0.1044
       42 H9     2s         0.0013    0.0115   -0.0289    0.0281    0.0053    0.0034   -0.0272   -0.0000    0.0013    0.0071
       43 H9     2px        0.0109   -0.0126    0.0121   -0.0067    0.0030    0.0041    0.0129   -0.0000   -0.0062   -0.0033
       44 H9     2py       -0.0093    0.0118   -0.0151    0.0104   -0.0005    0.0015   -0.0187    0.0000   -0.0055    0.0084
       45 H9     2pz        0.0000   -0.0000    0.0000   -0.0000   -0.0000    0.0000   -0.0000    0.0002   -0.0000   -0.0000
       46 H10    1s         0.0699   -0.0828    0.1301   -0.1530   -0.0893   -0.1502   -0.0001   -0.0000    0.2094   -0.0252
       47 H10    2s        -0.0098    0.0207   -0.0161    0.0089   -0.0024    0.0246   -0.0129   -0.0000   -0.0412   -0.0016
       48 H10    2px        0.0058   -0.0054    0.0043   -0.0053   -0.0039   -0.0048   -0.0082    0.0000    0.0024    0.0032
       49 H10    2py        0.0111   -0.0123    0.0170   -0.0177   -0.0077   -0.0140    0.0047   -0.0000    0.0178   -0.0024
       50 H10    2pz        0.0000   -0.0000    0.0000   -0.0000   -0.0000   -0.0000   -0.0000    0.0002    0.0000   -0.0000
       51 N11    1s         0.0026   -0.0077   -0.0064   -0.0021   -0.0003   -0.0008    0.0021   -0.0000   -0.0005   -0.0004
       52 N11    2s        -0.0620    0.1194    0.0344    0.0099   -0.0076    0.0145    0.0671   -0.0000    0.0258   -0.0451
       53 N11    3s         0.0045   -0.0208   -0.0243   -0.0081   -0.0037   -0.0006    0.0092   -0.0000    0.0002   -0.0029
       54 N11    2px       -0.0128    0.2184    0.3013    0.1167    0.2513   -0.2041   -0.1568    0.0000   -0.0870    0.0266
       55 N11    3px        0.0132   -0.0591   -0.0861   -0.0317   -0.0595    0.0386    0.0395   -0.0000    0.0037   -0.0054
       56 N11    2py        0.0591    0.0578   -0.1333   -0.3219    0.3455    0.0888   -0.1506   -0.0000    0.1338   -0.1750
       57 N11    3py       -0.0322   -0.0145    0.0426    0.0813   -0.0980   -0.0129    0.0363    0.0000   -0.0385    0.0153
       58 N11    2pz       -0.0000    0.0000    0.0000    0.0000    0.0000   -0.0000   -0.0000    0.3400    0.0000   -0.0000
       59 N11    3pz        0.0000    0.0000    0.0000    0.0000    0.0000   -0.0000    0.0000   -0.0133   -0.0000    0.0000
       60 N11    3d2-      -0.0064    0.0024    0.0073   -0.0006    0.0167   -0.0015   -0.0142   -0.0000    0.0122   -0.0107
       61 N11    3d1-      -0.0000   -0.0000   -0.0000    0.0000   -0.0000   -0.0000    0.0000    0.0039    0.0000   -0.0000
       62 N11    3d0        0.0007   -0.0007    0.0007   -0.0001    0.0005   -0.0004    0.0006    0.0000   -0.0003   -0.0006
       63 N11    3d1+       0.0000    0.0000   -0.0000   -0.0000   -0.0000    0.0000    0.0000   -0.0167   -0.0000    0.0000
       64 N11    3d2+      -0.0007   -0.0144   -0.0182   -0.0107   -0.0024    0.0087    0.0009   -0.0000    0.0094   -0.0083
       65 C12    1s        -0.0007    0.0214    0.0155    0.0028   -0.0016    0.0045    0.0007   -0.0000   -0.0003    0.0010
       66 C12    2s         0.1129   -0.2792   -0.2140   -0.0434    0.0397   -0.1955    0.0067    0.0000   -0.1565    0.0045
       67 C12    3s         0.0076    0.0173    0.0144    0.0009   -0.0025    0.0033    0.0026   -0.0000   -0.0059    0.0025
       68 C12    2px        0.0240    0.0108   -0.1695   -0.1451   -0.1575    0.2623    0.0929   -0.0000    0.1095   -0.0232
       69 C12    3px        0.0054   -0.0096    0.0725    0.0735    0.0624   -0.0951   -0.0615    0.0000   -0.0222    0.0016
       70 C12    2py        0.1629    0.1703   -0.0241   -0.1226    0.0755   -0.0320    0.0997   -0.0000   -0.2294    0.1177
       71 C12    3py       -0.0869   -0.0619    0.0049    0.0458   -0.0050    0.0284   -0.0283   -0.0000    0.1004   -0.0297
       72 C12    2pz       -0.0000   -0.0000   -0.0000   -0.0000    0.0000   -0.0000    0.0000    0.2704    0.0000   -0.0000
       73 C12    3pz       -0.0000   -0.0000   -0.0000   -0.0000   -0.0000   -0.0000    0.0000   -0.0592   -0.0000    0.0000
       74 C12    3d2-      -0.0183   -0.0091    0.0091   -0.0040    0.0370   -0.0084   -0.0248    0.0000    0.0204    0.0106
       75 C12    3d1-      -0.0000   -0.0000   -0.0000   -0.0000   -0.0000    0.0000    0.0000    0.0072    0.0000   -0.0000
       76 C12    3d0       -0.0073    0.0113    0.0111    0.0032    0.0016    0.0013   -0.0016    0.0000    0.0017   -0.0011
       77 C12    3d1+       0.0000    0.0000    0.0000    0.0000    0.0000   -0.0000   -0.0000    0.0153    0.0000   -0.0000
       78 C12    3d2+      -0.0149   -0.0024   -0.0257   -0.0204   -0.0038    0.0192    0.0260   -0.0000    0.0237   -0.0185
       79 C13    1s         0.0371    0.0079   -0.0189   -0.0000   -0.0031   -0.0080    0.0018    0.0000   -0.0005   -0.0032
       80 C13    2s        -0.2761   -0.1394    0.2254    0.0031    0.1885    0.1166   -0.1092   -0.0000    0.0981    0.0728
       81 C13    3s         0.0319   -0.0031   -0.0110    0.0011    0.0165   -0.0068   -0.0052   -0.0000    0.0097    0.0021
       82 C13    2px        0.0271   -0.1865   -0.0426    0.1163   -0.0263    0.0094   -0.2981   -0.0000    0.0782   -0.1599
       83 C13    3px       -0.0341    0.0722   -0.0095   -0.0466    0.0084    0.0387    0.1044   -0.0000    0.0030    0.0333
       84 C13    2py        0.0024   -0.0509   -0.0565    0.1192    0.0717   -0.2628    0.0751   -0.0000    0.0647    0.0525
       85 C13    3py       -0.0176    0.0433    0.0288   -0.0081   -0.0373    0.0868   -0.0393   -0.0000   -0.0028    0.0030
       86 C13    2pz       -0.0000   -0.0000    0.0000    0.0000    0.0000    0.0000    0.0000    0.1280    0.0000   -0.0000
       87 C13    3pz        0.0000   -0.0000    0.0000    0.0000    0.0000    0.0000   -0.0000   -0.0175   -0.0000    0.0000
       88 C13    3d2-      -0.0048   -0.0205   -0.0034    0.0033   -0.0020   -0.0209   -0.0031    0.0000   -0.0098   -0.0129
       89 C13    3d1-      -0.0000   -0.0000   -0.0000    0.0000    0.0000   -0.0000    0.0000    0.0134    0.0000   -0.0000
       90 C13    3d0        0.0107    0.0073   -0.0074   -0.0011   -0.0056   -0.0026    0.0040    0.0000   -0.0027    0.0003
       91 C13    3d1+       0.0000    0.0000   -0.0000    0.0000   -0.0000   -0.0000   -0.0000    0.0038    0.0000   -0.0000
       92 C13    3d2+      -0.0178    0.0164   -0.0023   -0.0132   -0.0060    0.0104    0.0278    0.0000    0.0091    0.0079
       93 C14    1s         0.0231   -0.0281    0.0028    0.0142    0.0099    0.0040   -0.0035   -0.0000   -0.0001   -0.0001
       94 C14    2s        -0.1658    0.3256   -0.1319   -0.1123   -0.1352   -0.0894    0.1455   -0.0000    0.0004   -0.0144
       95 C14    3s         0.0249   -0.0214   -0.0060    0.0213    0.0121    0.0028    0.0065   -0.0000    0.0015   -0.0005
       96 C14    2px       -0.1333   -0.0004    0.1593   -0.0567    0.1197    0.1448    0.2543   -0.0000    0.0020    0.1462
       97 C14    3px        0.0278    0.0132   -0.0706    0.0319   -0.0693   -0.0301   -0.0700   -0.0000    0.0328   -0.0662
       98 C14    2py        0.0369   -0.0198   -0.0925    0.1592    0.1240   -0.1030    0.0900    0.0000    0.3161    0.1424
       99 C14    3py       -0.0086   -0.0123    0.0354   -0.0607   -0.0447    0.0001   -0.0147    0.0000   -0.0723   -0.0630
      100 C14    2pz       -0.0000    0.0000   -0.0000   -0.0000   -0.0000   -0.0000    0.0000    0.0659    0.0000   -0.0000
      101 C14    3pz        0.0000    0.0000   -0.0000   -0.0000   -0.0000   -0.0000    0.0000   -0.0069   -0.0000   -0.0000
      102 C14    3d2-      -0.0086   -0.0073    0.0126   -0.0127   -0.0020   -0.0072    0.0090   -0.0000   -0.0224   -0.0113
      103 C14    3d1-      -0.0000   -0.0000    0.0000   -0.0000   -0.0000    0.0000   -0.0000    0.0015   -0.0000    0.0000
      104 C14    3d0        0.0055   -0.0150    0.0054    0.0031    0.0052    0.0031   -0.0033   -0.0000    0.0019    0.0009
      105 C14    3d1+       0.0000   -0.0000   -0.0000   -0.0000   -0.0000   -0.0000   -0.0000    0.0092    0.0000   -0.0000
      106 C14    3d2+      -0.0147   -0.0030    0.0185   -0.0081    0.0103    0.0042    0.0074   -0.0000    0.0032    0.0289
      107 C15    1s        -0.0270    0.0023    0.0146   -0.0234   -0.0090   -0.0106    0.0083   -0.0000    0.0074   -0.0037
      108 C15    2s         0.1410    0.0128   -0.2110    0.2334    0.1067    0.1137   -0.0785   -0.0000    0.0228    0.0475
      109 C15    3s        -0.0310    0.0067    0.0015   -0.0197   -0.0069   -0.0101    0.0065   -0.0000    0.0161   -0.0028
      110 C15    2px       -0.1003    0.1519   -0.1412    0.0861    0.0155   -0.0602    0.1332   -0.0000    0.2370   -0.0839
      111 C15    3px        0.0221   -0.0514    0.0478   -0.0266    0.0105    0.0362   -0.0546   -0.0000   -0.0884    0.0518
      112 C15    2py        0.0065   -0.0418    0.0272    0.0822    0.1576    0.1875    0.1714   -0.0000   -0.1119   -0.0785
      113 C15    3py       -0.0017    0.0221   -0.0249   -0.0308   -0.0321   -0.0817   -0.0560   -0.0000    0.0167    0.0458
      114 C15    2pz       -0.0000   -0.0000    0.0000   -0.0000   -0.0000    0.0000    0.0000    0.0284    0.0000   -0.0000
      115 C15    3pz        0.0000   -0.0000    0.0000   -0.0000    0.0000    0.0000   -0.0000   -0.0026   -0.0000    0.0000
      116 C15    3d2-       0.0127   -0.0210    0.0160   -0.0002    0.0089    0.0148   -0.0075    0.0000   -0.0151    0.0006
      117 C15    3d1-       0.0000    0.0000   -0.0000    0.0000    0.0000    0.0000   -0.0000   -0.0023   -0.0000    0.0000
      118 C15    3d0       -0.0049   -0.0021    0.0102   -0.0090   -0.0038   -0.0022    0.0021    0.0000   -0.0018   -0.0002
      119 C15    3d1+       0.0000   -0.0000    0.0000   -0.0000   -0.0000    0.0000   -0.0000    0.0018    0.0000   -0.0000
      120 C15    3d2+       0.0100   -0.0125    0.0154   -0.0076    0.0044    0.0002    0.0003    0.0000   -0.0055    0.0229
      121 C16    1s        -0.0324    0.0306   -0.0263    0.0184    0.0030    0.0037   -0.0056    0.0000   -0.0016    0.0010
      122 C16    2s         0.2051   -0.2535    0.2510   -0.1820   -0.0169   -0.0546    0.0539    0.0000    0.0178    0.0397
      123 C16    3s        -0.0375    0.0327   -0.0320    0.0241    0.0051    0.0053   -0.0134    0.0000   -0.0047    0.0064
      124 C16    2px        0.0651   -0.0050   -0.0933    0.1132    0.0232    0.0889   -0.2856   -0.0000   -0.2060    0.1673
      125 C16    3px       -0.0089    0.0031    0.0183   -0.0187   -0.0047   -0.0163    0.0659   -0.0000    0.0438   -0.0415
      126 C16    2py        0.0124   -0.0247    0.0199    0.0498    0.0884    0.1836    0.1155    0.0000   -0.2403   -0.0257
      127 C16    3py       -0.0072    0.0021    0.0154   -0.0217   -0.0241   -0.0272   -0.0354   -0.0000    0.0412    0.0074
      128 C16    2pz       -0.0000   -0.0000   -0.0000   -0.0000   -0.0000    0.0000    0.0000    0.0126    0.0000   -0.0000
      129 C16    3pz       -0.0000    0.0000    0.0000    0.0000   -0.0000    0.0000   -0.0000   -0.0001   -0.0000    0.0000
      130 C16    3d2-       0.0055   -0.0045   -0.0019    0.0072    0.0040    0.0063   -0.0140   -0.0000   -0.0020    0.0061
      131 C16    3d1-       0.0000   -0.0000   -0.0000   -0.0000   -0.0000   -0.0000   -0.0000    0.0005   -0.0000   -0.0000
      132 C16    3d0       -0.0073    0.0102   -0.0098    0.0066    0.0014    0.0024   -0.0022   -0.0000   -0.0018    0.0009
      133 C16    3d1+      -0.0000   -0.0000    0.0000   -0.0000   -0.0000    0.0000    0.0000    0.0018    0.0000   -0.0000
      134 C16    3d2+       0.0101   -0.0011   -0.0088    0.0112    0.0037    0.0104   -0.0175   -0.0000   -0.0217    0.0123
      135 C17    1s        -0.0539   -0.0260   -0.0147   -0.0071    0.0051   -0.0074    0.0006    0.0000   -0.0037   -0.0008
      136 C17    2s         0.3095    0.1633    0.1409    0.0439   -0.1347    0.0357   -0.0250    0.0000   -0.0039    0.0165
      137 C17    3s        -0.0684   -0.0356   -0.0182   -0.0113   -0.0012   -0.0162    0.0003    0.0000   -0.0093   -0.0009
      138 C17    2px        0.0356   -0.0100   -0.0704   -0.1187   -0.0100    0.0633   -0.0204    0.0000   -0.0329    0.4833
      139 C17    3px        0.0152   -0.0070   -0.0015    0.0099   -0.0203    0.0024    0.0137   -0.0000   -0.0137   -0.0507
      140 C17    2py       -0.0424    0.0433    0.0878    0.0503   -0.1295    0.2197   -0.0650   -0.0000    0.3097    0.0291
      141 C17    3py       -0.0010   -0.0170   -0.0142   -0.0074    0.0099   -0.0287    0.0085   -0.0000   -0.0579    0.0021
      142 C17    2pz        0.0000   -0.0000    0.0000   -0.0000    0.0000    0.0000   -0.0000    0.4619    0.0000   -0.0000
      143 C17    3pz        0.0000   -0.0000    0.0000    0.0000    0.0000    0.0000   -0.0000   -0.0708   -0.0000    0.0000
      144 C17    3d2-      -0.0046    0.0013    0.0102    0.0081   -0.0020    0.0073   -0.0098   -0.0000    0.0188    0.0189
      145 C17    3d1-       0.0000   -0.0000   -0.0000   -0.0000    0.0000    0.0000    0.0000   -0.0071   -0.0000    0.0000
      146 C17    3d0       -0.0063    0.0025    0.0087    0.0093   -0.0073    0.0043   -0.0009   -0.0000    0.0119   -0.0342
      147 C17    3d1+       0.0000    0.0000   -0.0000    0.0000   -0.0000   -0.0000    0.0000   -0.0323   -0.0000   -0.0000
      148 C17    3d2+      -0.0054    0.0081    0.0070    0.0036   -0.0138    0.0243   -0.0019   -0.0000    0.0274   -0.0051
 
          Orbital           21        22        23        24        25        26        27        28        29        30    
          Energy           -0.7215   -0.7142   -0.6874   -0.6683   -0.6099   -0.4975   -0.1302   -0.0520   -0.0132   -0.0126
          Occ. No.          2.0000    2.0000    2.0000    2.0000    2.0000    2.0000    0.0000    0.0000    0.0000    0.0000
 
        1 H1     1s        -0.1015    0.0909   -0.2170   -0.0526   -0.0482    0.0406   -0.1678   -0.3147   -0.2269    0.2245
        2 H1     2s         0.0185   -0.0154    0.0478    0.0098   -0.0206    0.0051   -0.0615   -0.2376   -0.1961    0.0907
        3 H1     2px        0.0014    0.0029   -0.0109   -0.0005   -0.0034    0.0006    0.0020   -0.0036   -0.0043    0.0028
        4 H1     2py        0.0046    0.0049    0.0055    0.0044    0.0007   -0.0004   -0.0031    0.0043    0.0031    0.0110
        5 H1     2pz        0.0088   -0.0079    0.0090    0.0041    0.0021   -0.0004    0.0014    0.0097    0.0060   -0.0020
        6 H2     1s        -0.1015    0.0909    0.2170   -0.0526    0.0482   -0.0406    0.1678   -0.3147   -0.2269   -0.2245
        7 H2     2s         0.0185   -0.0154   -0.0478    0.0098    0.0206   -0.0051    0.0615   -0.2376   -0.1961   -0.0907
        8 H2     2px        0.0014    0.0029    0.0109   -0.0005    0.0034   -0.0006   -0.0020   -0.0036   -0.0043   -0.0028
        9 H2     2py        0.0046    0.0049   -0.0055    0.0044   -0.0007    0.0004    0.0031    0.0043    0.0031   -0.0110
       10 H2     2pz       -0.0088    0.0079    0.0090   -0.0041    0.0021   -0.0004    0.0014   -0.0097   -0.0060   -0.0020
       11 H3     1s         0.2123    0.0510    0.0000    0.1526    0.0000   -0.0000    0.0000   -0.1706    0.2559    0.0000
       12 H3     2s        -0.0319   -0.0135    0.0000   -0.0190    0.0000   -0.0000    0.0000   -0.1744    0.2261    0.0000
       13 H3     2px       -0.0080   -0.0066   -0.0000   -0.0060   -0.0000    0.0000   -0.0000    0.0037   -0.0037    0.0000
       14 H3     2py       -0.0123    0.0033   -0.0000   -0.0062   -0.0000    0.0000   -0.0000    0.0016   -0.0065   -0.0000
       15 H3     2pz       -0.0000   -0.0000   -0.0071   -0.0000   -0.0022    0.0017   -0.0014   -0.0000   -0.0000    0.0020
       16 H4     1s         0.1803    0.0276   -0.0000    0.2482    0.0000   -0.0000   -0.0000   -0.1222   -0.5625   -0.0000
       17 H4     2s        -0.0201   -0.0182   -0.0000   -0.0123    0.0000   -0.0000   -0.0000   -0.1065   -0.4817   -0.0000
       18 H4     2px       -0.0002    0.0054   -0.0000    0.0084    0.0000   -0.0000    0.0000   -0.0017   -0.0074   -0.0000
       19 H4     2py        0.0144    0.0011   -0.0000    0.0110    0.0000   -0.0000   -0.0000   -0.0061   -0.0203   -0.0000
       20 H4     2pz        0.0000    0.0000    0.0032    0.0000    0.0167   -0.0059   -0.0203   -0.0000   -0.0000    0.0038
       21 H5     1s         0.0257   -0.2980    0.0000   -0.2067    0.0000    0.0000    0.0000   -0.2943   -0.2668   -0.0000
       22 H5     2s         0.0014    0.0313    0.0000    0.0180    0.0000    0.0000    0.0000   -0.2619   -0.2025   -0.0000
       23 H5     2px        0.0068    0.0061    0.0000    0.0053   -0.0000    0.0000   -0.0000    0.0033    0.0052    0.0000
       24 H5     2py        0.0046   -0.0173    0.0000   -0.0099    0.0000    0.0000    0.0000   -0.0113   -0.0124   -0.0000
       25 H5     2pz       -0.0000    0.0000    0.0079   -0.0000    0.0126   -0.0185    0.0074   -0.0000   -0.0000    0.0193
       26 H6     1s         0.0430   -0.1771   -0.0000    0.3202    0.0000    0.0000   -0.0000   -0.0859   -0.3215   -0.0000
       27 H6     2s        -0.0028    0.0293   -0.0000   -0.0242    0.0000    0.0000   -0.0000   -0.0919   -0.3022   -0.0000
       28 H6     2px        0.0051   -0.0040    0.0000   -0.0077   -0.0000   -0.0000    0.0000    0.0019    0.0070    0.0000
       29 H6     2py       -0.0058    0.0132    0.0000   -0.0158    0.0000   -0.0000    0.0000    0.0038    0.0195    0.0000
       30 H6     2pz        0.0000   -0.0000    0.0005    0.0000    0.0175    0.0159   -0.0041    0.0000    0.0000   -0.0192
       31 H7     1s         0.0714    0.0627    0.0000    0.0301    0.0000   -0.0000    0.0000   -0.4972    0.7057    0.0000
       32 H7     2s         0.0053    0.0026    0.0000    0.0040    0.0000   -0.0000    0.0000   -0.4072    0.5504    0.0000
       33 H7     2px       -0.0022   -0.0063    0.0000   -0.0010    0.0000    0.0000   -0.0000    0.0106   -0.0121   -0.0000
       34 H7     2py       -0.0037   -0.0014   -0.0000   -0.0004   -0.0000    0.0000   -0.0000    0.0104   -0.0094   -0.0000
       35 H7     2pz       -0.0000    0.0000    0.0263    0.0000   -0.0120    0.0123   -0.0202    0.0000   -0.0000    0.0073
       36 H8     1s         0.0066   -0.1056    0.0000   -0.0114   -0.0000    0.0000   -0.0000   -0.5515    0.1704    0.0000
       37 H8     2s        -0.0025   -0.0001    0.0000   -0.0039   -0.0000    0.0000   -0.0000   -0.4325    0.1530    0.0000
       38 H8     2px        0.0032    0.0043   -0.0000    0.0026   -0.0000   -0.0000    0.0000    0.0058   -0.0019   -0.0000
       39 H8     2py        0.0008   -0.0054    0.0000    0.0014    0.0000    0.0000   -0.0000   -0.0144   -0.0004   -0.0000
       40 H8     2pz       -0.0000    0.0000    0.0259    0.0000   -0.0116    0.0115   -0.0164   -0.0000   -0.0000    0.0164
       41 H9     1s         0.3193    0.0446    0.0000   -0.1953   -0.0000   -0.0000    0.0000   -0.0471   -0.3770   -0.0000
       42 H9     2s        -0.0289   -0.0120    0.0000    0.0239   -0.0000    0.0000    0.0000   -0.0425   -0.3196   -0.0000
       43 H9     2px        0.0160    0.0088    0.0000   -0.0130   -0.0000   -0.0000    0.0000   -0.0031   -0.0173   -0.0000
       44 H9     2py       -0.0165    0.0033   -0.0000    0.0051    0.0000   -0.0000   -0.0000    0.0036    0.0152    0.0000
       45 H9     2pz       -0.0000    0.0000    0.0008   -0.0000    0.0112    0.0159    0.0164   -0.0000   -0.0000    0.0153
       46 H10    1s        -0.1661   -0.2079    0.0000    0.2228    0.0000    0.0000   -0.0000   -0.0793   -0.5168   -0.0000
       47 H10    2s         0.0128    0.0361    0.0000   -0.0235    0.0000    0.0000   -0.0000   -0.0701   -0.4418   -0.0000
       48 H10    2px       -0.0136   -0.0027   -0.0000    0.0092    0.0000    0.0000   -0.0000   -0.0024   -0.0128   -0.0000
       49 H10    2py       -0.0081   -0.0138    0.0000    0.0096    0.0000    0.0000   -0.0000   -0.0057   -0.0247   -0.0000
       50 H10    2pz        0.0000   -0.0000    0.0008    0.0000    0.0116    0.0161    0.0141    0.0000   -0.0000    0.0169
       51 N11    1s        -0.0011    0.0011   -0.0000    0.0001    0.0000   -0.0000   -0.0000    0.0977   -0.0763   -0.0000
       52 N11    2s        -0.0743    0.0553   -0.0000   -0.0123    0.0000   -0.0000    0.0000    0.7797   -0.5951   -0.0000
       53 N11    3s        -0.0037    0.0036    0.0000    0.0005    0.0000   -0.0000    0.0000    0.3253   -0.2476   -0.0000
       54 N11    2px        0.1146   -0.0625   -0.0000    0.0280   -0.0000    0.0000   -0.0000    0.2763   -0.1933   -0.0000
       55 N11    3px       -0.0245    0.0050   -0.0000   -0.0069   -0.0000    0.0000   -0.0000    0.1423   -0.0771   -0.0000
       56 N11    2py       -0.0158    0.0766    0.0000   -0.0138   -0.0000    0.0000   -0.0000   -0.0602   -0.1518   -0.0000
       57 N11    3py       -0.0131   -0.0247    0.0000   -0.0074   -0.0000    0.0000   -0.0000   -0.0380   -0.1243   -0.0000
       58 N11    2pz       -0.0000    0.0000    0.6191    0.0000   -0.2898    0.3105   -0.4735   -0.0000   -0.0000    0.3773
       59 N11    3pz        0.0000   -0.0000   -0.0173    0.0000   -0.0066    0.0341   -0.1717   -0.0000   -0.0000    0.2297
       60 N11    3d2-       0.0068    0.0126    0.0000    0.0059    0.0000    0.0000   -0.0000    0.0060   -0.0017    0.0000
       61 N11    3d1-      -0.0000    0.0000    0.0040    0.0000   -0.0015    0.0012    0.0019    0.0000    0.0000   -0.0104
       62 N11    3d0       -0.0013    0.0012    0.0000    0.0001   -0.0000    0.0000   -0.0000   -0.0166    0.0060    0.0000
       63 N11    3d1+       0.0000   -0.0000   -0.0198   -0.0000    0.0035    0.0022   -0.0238   -0.0000   -0.0000    0.0245
       64 N11    3d2+      -0.0028    0.0096    0.0000    0.0018    0.0000   -0.0000    0.0000   -0.0055    0.0062    0.0000
       65 C12    1s        -0.0012    0.0002   -0.0000   -0.0001    0.0000   -0.0000    0.0000    0.0300   -0.0100   -0.0000
       66 C12    2s         0.0637   -0.0174    0.0000    0.0669    0.0000   -0.0000    0.0000    0.1770   -0.0245   -0.0000
       67 C12    3s        -0.0012   -0.0003    0.0000    0.0012    0.0000   -0.0000    0.0000    0.0934   -0.0346   -0.0000
       68 C12    2px       -0.1156   -0.0146   -0.0000   -0.0873    0.0000   -0.0000   -0.0000   -0.0292    0.0953    0.0000
       69 C12    3px        0.0534   -0.0081   -0.0000    0.0197    0.0000   -0.0000   -0.0000    0.0231    0.0417    0.0000
       70 C12    2py       -0.0889   -0.2933    0.0000   -0.1457    0.0000   -0.0000   -0.0000    0.0660    0.0953   -0.0000
       71 C12    3py        0.0314    0.0969    0.0000    0.0434    0.0000   -0.0000   -0.0000    0.0776    0.1430    0.0000
       72 C12    2pz       -0.0000    0.0000    0.2637    0.0000   -0.0086   -0.1296    0.6819    0.0000    0.0000   -0.8129
       73 C12    3pz        0.0000   -0.0000   -0.0414   -0.0000   -0.0011   -0.0006    0.1583    0.0000    0.0000   -0.2945
       74 C12    3d2-       0.0257    0.0207   -0.0000    0.0212   -0.0000   -0.0000    0.0000    0.0006   -0.0164   -0.0000
       75 C12    3d1-       0.0000   -0.0000   -0.0330   -0.0000   -0.0155    0.0240   -0.0124    0.0000    0.0000   -0.0230
       76 C12    3d0       -0.0003    0.0017    0.0000    0.0007    0.0000   -0.0000   -0.0000   -0.0212   -0.0019   -0.0000
       77 C12    3d1+      -0.0000    0.0000    0.0466    0.0000   -0.0368    0.0425   -0.0244    0.0000    0.0000   -0.0026
       78 C12    3d2+      -0.0279    0.0376   -0.0000    0.0048   -0.0000    0.0000   -0.0000   -0.0123   -0.0057    0.0000
       79 C13    1s         0.0017   -0.0018    0.0000   -0.0006    0.0000    0.0000   -0.0000    0.0587    0.0461    0.0000
       80 C13    2s        -0.0517    0.0078    0.0000   -0.0252    0.0000    0.0000   -0.0000    0.4463    0.2520   -0.0000
       81 C13    3s        -0.0002   -0.0015    0.0000   -0.0032    0.0000    0.0000   -0.0000    0.1615    0.1115    0.0000
       82 C13    2px        0.2349   -0.0878   -0.0000   -0.0163    0.0000   -0.0000   -0.0000    0.1555    0.1534    0.0000
       83 C13    3px       -0.0712    0.0330   -0.0000    0.0004    0.0000   -0.0000   -0.0000    0.0810    0.1251    0.0000
       84 C13    2py        0.0687    0.2999   -0.0000    0.1922    0.0000    0.0000    0.0000   -0.1872   -0.0540    0.0000
       85 C13    3py       -0.0136   -0.0786   -0.0000   -0.0574    0.0000    0.0000    0.0000   -0.1010    0.0072    0.0000
       86 C13    2pz       -0.0000    0.0000    0.1520    0.0000    0.3518   -0.5182    0.2299   -0.0000   -0.0000    0.5405
       87 C13    3pz        0.0000   -0.0000   -0.0310    0.0000   -0.0138   -0.0013    0.0460   -0.0000   -0.0000    0.2437
       88 C13    3d2-       0.0153    0.0347   -0.0000    0.0408    0.0000   -0.0000   -0.0000   -0.0048    0.0066    0.0000
       89 C13    3d1-      -0.0000    0.0000    0.0138    0.0000    0.0056   -0.0135    0.0256    0.0000    0.0000   -0.0409
       90 C13    3d0       -0.0007    0.0021    0.0000    0.0009    0.0000   -0.0000    0.0000   -0.0228   -0.0168   -0.0000
       91 C13    3d1+      -0.0000    0.0000    0.0016    0.0000   -0.0294    0.0115    0.0531   -0.0000    0.0000   -0.0048
       92 C13    3d2+      -0.0172    0.0214   -0.0000    0.0061    0.0000    0.0000    0.0000   -0.0087    0.0039    0.0000
       93 C14    1s         0.0015   -0.0005    0.0000   -0.0006    0.0000   -0.0000    0.0000    0.0283    0.0846    0.0000
       94 C14    2s         0.0868    0.0907    0.0000   -0.0607    0.0000   -0.0000    0.0000    0.1952    0.6001    0.0000
       95 C14    3s         0.0064    0.0042    0.0000   -0.0028    0.0000   -0.0000    0.0000    0.0824    0.2150    0.0000
       96 C14    2px       -0.2661    0.0798   -0.0000    0.0793    0.0000   -0.0000   -0.0000   -0.0899   -0.1485   -0.0000
       97 C14    3px        0.0917   -0.0310   -0.0000   -0.0180    0.0000   -0.0000   -0.0000   -0.0531   -0.1136   -0.0000
       98 C14    2py       -0.0360   -0.0627   -0.0000   -0.2936    0.0000   -0.0000   -0.0000   -0.0791   -0.4121   -0.0000
       99 C14    3py        0.0337    0.0102   -0.0000    0.0841    0.0000   -0.0000   -0.0000   -0.0276   -0.2374   -0.0000
      100 C14    2pz       -0.0000    0.0000    0.0973   -0.0000    0.3880   -0.1924   -0.6320   -0.0000   -0.0000   -0.0041
      101 C14    3pz       -0.0000   -0.0000   -0.0041   -0.0000   -0.0587    0.0032   -0.1335    0.0000   -0.0000    0.0354
      102 C14    3d2-       0.0045    0.0254   -0.0000    0.0433   -0.0000    0.0000    0.0000   -0.0026    0.0109    0.0000
      103 C14    3d1-       0.0000    0.0000    0.0022   -0.0000    0.0204    0.0147   -0.0027    0.0000    0.0000   -0.0424
      104 C14    3d0       -0.0020   -0.0009   -0.0000   -0.0004    0.0000   -0.0000   -0.0000   -0.0132   -0.0261   -0.0000
      105 C14    3d1+      -0.0000    0.0000    0.0120   -0.0000    0.0080   -0.0567    0.0118    0.0000   -0.0000    0.0312
      106 C14    3d2+      -0.0331    0.0174   -0.0000   -0.0180    0.0000   -0.0000    0.0000   -0.0046   -0.0170   -0.0000
      107 C15    1s         0.0046   -0.0044   -0.0000    0.0029    0.0000   -0.0000    0.0000    0.0203    0.0567    0.0000
      108 C15    2s        -0.0074   -0.0923   -0.0000   -0.0016    0.0000   -0.0000    0.0000    0.1809    0.3900    0.0000
      109 C15    3s         0.0064   -0.0167   -0.0000    0.0056    0.0000   -0.0000    0.0000    0.0595    0.1601    0.0000
      110 C15    2px        0.1580   -0.2326    0.0000   -0.0285   -0.0000    0.0000    0.0000    0.0800    0.2011    0.0000
      111 C15    3px       -0.0834    0.0730    0.0000    0.0072   -0.0000    0.0000    0.0000    0.0451    0.1441    0.0000
      112 C15    2py        0.0239   -0.1088    0.0000    0.3346   -0.0000   -0.0000    0.0000    0.1348    0.3126    0.0000
      113 C15    3py       -0.0008    0.0314    0.0000   -0.0933   -0.0000   -0.0000    0.0000    0.0870    0.2098    0.0000
      114 C15    2pz        0.0000    0.0000    0.0305    0.0000    0.4241    0.4370   -0.0916    0.0000    0.0000   -0.7258
      115 C15    3pz        0.0000    0.0000   -0.0077    0.0000   -0.0361    0.0059   -0.0218    0.0000    0.0000   -0.2817
      116 C15    3d2-      -0.0302   -0.0071    0.0000    0.0430    0.0000   -0.0000    0.0000    0.0034    0.0116    0.0000
      117 C15    3d1-      -0.0000   -0.0000   -0.0044    0.0000   -0.0277   -0.0068    0.0166    0.0000   -0.0000    0.0008
      118 C15    3d0       -0.0007    0.0038   -0.0000   -0.0008   -0.0000    0.0000   -0.0000   -0.0096   -0.0221   -0.0000
      119 C15    3d1+      -0.0000    0.0000    0.0015    0.0000   -0.0074   -0.0377   -0.0456    0.0000    0.0000   -0.0303
      120 C15    3d2+      -0.0185    0.0264   -0.0000   -0.0321   -0.0000    0.0000   -0.0000   -0.0091   -0.0190   -0.0000
      121 C16    1s         0.0001   -0.0020    0.0000    0.0013   -0.0000    0.0000    0.0000    0.0237    0.1297    0.0000
      122 C16    2s        -0.0550    0.0432    0.0000   -0.0333   -0.0000    0.0000    0.0000    0.1531    0.9093    0.0000
      123 C16    3s        -0.0071    0.0007    0.0000    0.0019    0.0000    0.0000   -0.0000    0.0638    0.3416    0.0000
      124 C16    2px       -0.2783    0.1944    0.0000    0.0059   -0.0000    0.0000    0.0000   -0.0706   -0.2642   -0.0000
      125 C16    3px        0.0628   -0.0385    0.0000   -0.0023   -0.0000    0.0000    0.0000   -0.0327   -0.1178   -0.0000
      126 C16    2py        0.2491    0.2426    0.0000   -0.2507    0.0000    0.0000   -0.0000   -0.0545   -0.1797   -0.0000
      127 C16    3py       -0.0824   -0.0404    0.0000    0.0608    0.0000    0.0000   -0.0000   -0.0417   -0.1199   -0.0000
      128 C16    2pz        0.0000    0.0000    0.0162    0.0000    0.2815    0.4048    0.4997   -0.0000   -0.0000    0.7332
      129 C16    3pz       -0.0000    0.0000   -0.0024    0.0000   -0.0284   -0.0250    0.1154   -0.0000   -0.0000    0.3455
      130 C16    3d2-      -0.0341   -0.0112   -0.0000    0.0385   -0.0000    0.0000   -0.0000    0.0004   -0.0015   -0.0000
      131 C16    3d1-       0.0000    0.0000    0.0006    0.0000    0.0056    0.0057    0.0048    0.0000    0.0000   -0.0100
      132 C16    3d0       -0.0007    0.0007    0.0000   -0.0009   -0.0000    0.0000    0.0000   -0.0087   -0.0384   -0.0000
      133 C16    3d1+       0.0000   -0.0000    0.0028    0.0000    0.0338    0.0338   -0.0041   -0.0000    0.0000   -0.0334
      134 C16    3d2+      -0.0033    0.0263    0.0000   -0.0239   -0.0000    0.0000   -0.0000   -0.0042   -0.0188   -0.0000
      135 C17    1s        -0.0012    0.0002   -0.0000    0.0004   -0.0000    0.0000    0.0000    0.0859    0.0095    0.0000
      136 C17    2s        -0.0131   -0.0095   -0.0000   -0.0468   -0.0000    0.0000    0.0000    0.6908    0.0966    0.0000
      137 C17    3s        -0.0026   -0.0033   -0.0000   -0.0015   -0.0000    0.0000    0.0000    0.2403    0.0328    0.0000
      138 C17    2px        0.2520   -0.1180   -0.0000    0.1425   -0.0000    0.0000   -0.0000   -0.0891   -0.3402   -0.0000
      139 C17    3px       -0.0486    0.0234   -0.0000   -0.0208   -0.0000    0.0000   -0.0000   -0.1055   -0.2023   -0.0000
      140 C17    2py        0.0800    0.2803    0.0000    0.1266    0.0000    0.0000   -0.0000    0.1704   -0.0773   -0.0000
      141 C17    3py       -0.0159   -0.0376    0.0000   -0.0181    0.0000    0.0000   -0.0000    0.0907   -0.0443   -0.0000
      142 C17    2pz        0.0000   -0.0000   -0.3689   -0.0000   -0.0179    0.0305   -0.0500    0.0000   -0.0000    0.0516
      143 C17    3pz        0.0000    0.0000    0.0261    0.0000    0.0226   -0.0061   -0.0256    0.0000   -0.0000    0.0252
      144 C17    3d2-       0.0213    0.0137   -0.0000    0.0176   -0.0000    0.0000   -0.0000    0.0102   -0.0079   -0.0000
      145 C17    3d1-       0.0000   -0.0000   -0.0181   -0.0000   -0.0003    0.0071   -0.0321   -0.0000   -0.0000    0.0434
      146 C17    3d0       -0.0176    0.0168    0.0000   -0.0092    0.0000   -0.0000    0.0000   -0.0009    0.0212    0.0000
      147 C17    3d1+      -0.0000    0.0000    0.0347   -0.0000   -0.0012   -0.0039    0.0169   -0.0000    0.0000   -0.0188
      148 C17    3d2+       0.0003    0.0192    0.0000    0.0061    0.0000   -0.0000   -0.0000    0.0109    0.0090    0.0000
 
          Orbital           31        32        33        34        35        36        37        38        39        40    
          Energy           -0.0083    0.0302    0.0421    0.0487    0.0788    0.1014    0.1125    0.1335    0.1390    0.1694
[...]
   133 C16    3d1+      -0.0097    0.0000   -0.0000   -0.0314    0.0000   -0.0000   -0.0000   -0.0503    0.0000    0.0425
   134 C16    3d2+      -0.0000   -0.0166    0.0123   -0.0000   -0.0134   -0.0145   -0.0006   -0.0000    0.0127    0.0000
   135 C17    1s         0.0000    0.1214    0.1073   -0.0000   -0.0812   -0.0428    0.0688   -0.0000   -0.1013   -0.0000
   136 C17    2s         0.0000    0.8542    0.6791   -0.0001   -0.6237   -0.3198    0.4853   -0.0000   -0.6646   -0.0000
   137 C17    3s         0.0000    0.3259    0.2678   -0.0000   -0.2041   -0.1247    0.1855   -0.0000   -0.2398   -0.0000
   138 C17    2px        0.0000   -0.4133    0.3003   -0.0001    0.4483   -0.2900    1.2089    0.0000    0.3194    0.0000
   139 C17    3px        0.0000   -0.2614    0.1662   -0.0000    0.2974   -0.3646    0.8097    0.0000    0.2951    0.0000
   140 C17    2py        0.0000    0.0983    0.2675   -0.0000    0.0800    0.8403   -0.5204    0.0000    0.3624   -0.0000
   141 C17    3py        0.0000   -0.0199    0.0708   -0.0000    0.0651    0.7442   -0.5842    0.0000    0.3251   -0.0000
   142 C17    2pz       -0.0867   -0.0000    0.0001    0.3899    0.0000    0.0000   -0.0000   -0.4494   -0.0000    1.8094
   143 C17    3pz       -0.0458   -0.0000    0.0000    0.2021    0.0000    0.0000   -0.0000    0.0460   -0.0000    1.5496
   144 C17    3d2-       0.0000    0.0022    0.0087   -0.0000    0.0099   -0.0114   -0.0034   -0.0000   -0.0152    0.0000
   145 C17    3d1-       0.0593   -0.0000    0.0000    0.0043    0.0000    0.0000    0.0000    0.0059   -0.0000    0.0569
   146 C17    3d0        0.0000    0.0225   -0.0166    0.0000   -0.0207   -0.0083   -0.0015   -0.0000    0.0205    0.0000
   147 C17    3d1+      -0.0300    0.0000   -0.0000   -0.0019    0.0000   -0.0000   -0.0000    0.0351    0.0000   -0.0051
   148 C17    3d2+       0.0000    0.0230    0.0027   -0.0000   -0.0205    0.0120    0.0022   -0.0000   -0.0367   -0.0000
 
 
      Orbital                41
      Energy             0.1491
      Occ. No.           0.0000
 
     1 H1     1s         0.1780
     2 H1     2s         0.0837
     3 H1     2px        0.0017
     4 H1     2py       -0.0097
     5 H1     2pz       -0.0015
     6 H2     1s         0.1778
     7 H2     2s         0.0837
     8 H2     2px        0.0017
     9 H2     2py       -0.0097
    10 H2     2pz        0.0015
    11 H3     1s         0.6103
    12 H3     2s         0.4626
    13 H3     2px        0.0081
    14 H3     2py        0.0115
    15 H3     2pz       -0.0000
    16 H4     1s        -0.2059
    17 H4     2s        -0.3954
    18 H4     2px       -0.0206
    19 H4     2py       -0.0589
    20 H4     2pz       -0.0000
    21 H5     1s         0.0120
    22 H5     2s        -0.0024
    23 H5     2px        0.0178
    24 H5     2py       -0.0197
    25 H5     2pz       -0.0000
    26 H6     1s        -0.6394
    27 H6     2s        -0.5290
    28 H6     2px        0.0270
    29 H6     2py        0.0206
    30 H6     2pz       -0.0000
    31 H7     1s        -0.6785
    32 H7     2s        -0.5721
    33 H7     2px       -0.0230
    34 H7     2py        0.0176
    35 H7     2pz       -0.0000
    36 H8     1s         0.6412
    37 H8     2s         0.4331
    38 H8     2px       -0.0238
    39 H8     2py        0.0080
    40 H8     2pz        0.0000
    41 H9     1s         1.0220
    42 H9     2s         0.8978
    43 H9     2px        0.0027
    44 H9     2py       -0.0005
    45 H9     2pz       -0.0000
    46 H10    1s        -0.9251
    47 H10    2s        -0.7148
    48 H10    2px        0.0110
    49 H10    2py       -0.0286
    50 H10    2pz       -0.0000
    51 N11    1s         0.0403
    52 N11    2s         0.3014
    53 N11    3s         0.1323
    54 N11    2px       -0.2878
    55 N11    3px       -0.3834
    56 N11    2py        0.4797
    57 N11    3py        0.3580
    58 N11    2pz       -0.0000
    59 N11    3pz       -0.0000
    60 N11    3d2-       0.0161
    61 N11    3d1-      -0.0000
    62 N11    3d0        0.0142
    63 N11    3d1+      -0.0000
    64 N11    3d2+      -0.0149
    65 C12    1s        -0.1932
    66 C12    2s        -1.1821
    67 C12    3s        -0.3419
    68 C12    2px       -0.2357
    69 C12    3px       -0.1043
    70 C12    2py       -0.0695
    71 C12    3py        0.0001
    72 C12    2pz        0.0000
    73 C12    3pz        0.0000
    74 C12    3d2-      -0.0021
    75 C12    3d1-      -0.0000
    76 C12    3d0        0.0286
    77 C12    3d1+       0.0000
    78 C12    3d2+       0.0271
    79 C13    1s        -0.0126
    80 C13    2s        -0.0833
    81 C13    3s         0.0002
    82 C13    2px        0.3647
    83 C13    3px        0.3582
    84 C13    2py        0.1347
    85 C13    3py        0.0683
    86 C13    2pz       -0.0000
    87 C13    3pz       -0.0000
    88 C13    3d2-      -0.0073
    89 C13    3d1-       0.0000
    90 C13    3d0       -0.0199
    91 C13    3d1+       0.0000
    92 C13    3d2+      -0.0153
    93 C14    1s         0.1354
    94 C14    2s         0.7553
    95 C14    3s         0.3522
    96 C14    2px        0.0112
    97 C14    3px       -0.0541
    98 C14    2py       -0.1708
    99 C14    3py       -0.0546
   100 C14    2pz        0.0000
   101 C14    3pz        0.0000
   102 C14    3d2-       0.0455
   103 C14    3d1-      -0.0000
   104 C14    3d0       -0.0671
   105 C14    3d1+      -0.0000
   106 C14    3d2+      -0.0340
   107 C15    1s         0.1323
   108 C15    2s         0.8177
   109 C15    3s         0.2890
   110 C15    2px       -0.2057
   111 C15    3px       -0.0947
   112 C15    2py        0.4626
   113 C15    3py        0.3632
   114 C15    2pz       -0.0000
   115 C15    3pz        0.0000
   116 C15    3d2-       0.0685
   117 C15    3d1-       0.0000
   118 C15    3d0       -0.0374
   119 C15    3d1+      -0.0000
   120 C15    3d2+      -0.0091
   121 C16    1s        -0.0564
   122 C16    2s        -0.3881
   123 C16    3s        -0.1531
   124 C16    2px       -0.1782
   125 C16    3px       -0.3931
   126 C16    2py       -0.9072
   127 C16    3py       -0.5774
   128 C16    2pz        0.0000
   129 C16    3pz        0.0000
   130 C16    3d2-       0.0258
   131 C16    3d1-       0.0000
   132 C16    3d0       -0.0147
   133 C16    3d1+      -0.0000
   134 C16    3d2+      -0.0075
   135 C17    1s        -0.0470
   136 C17    2s        -0.3067
   137 C17    3s        -0.0634
   138 C17    2px       -0.0282
   139 C17    3px        0.1260
   140 C17    2py       -0.5617
   141 C17    3py       -0.4699
   142 C17    2pz       -0.0001
   143 C17    3pz       -0.0000
   144 C17    3d2-       0.0351
   145 C17    3d1-      -0.0000
   146 C17    3d0        0.0238
   147 C17    3d1+       0.0000
   148 C17    3d2+       0.0161
--
 
      Von Neumann Entropy (Root   1) =  0.34708
 

      Mulliken population analysis for root number:  1
      -----------------------------------------------
 
 
++    Molecular charges:
      ------------------
 
      Mulliken charges per centre and basis function type
      ---------------------------------------------------
 
                H1      H2      H3      H4      H5      H6      H7      H8      H9      H10     N11     C12   
      1s       0.8400  0.8400  0.8469  0.9382  0.9300  0.9316  0.8128  0.8149  0.8925  0.8862  1.9994  1.9986
      2s       0.0598  0.0598  0.0490  0.0301  0.0315  0.0371  0.0223  0.0283  0.0212  0.0307  1.1409  1.1059
      2px      0.0170  0.0170  0.0207  0.0122  0.0121  0.0123  0.0286  0.0172  0.0213  0.0125  1.0157  0.7455
      2pz      0.0248  0.0248  0.0104  0.0107  0.0161  0.0175  0.0283  0.0273  0.0125  0.0128  1.5249  0.5591
      2py      0.0093  0.0093  0.0172  0.0260  0.0287  0.0293  0.0342  0.0458  0.0229  0.0319  1.0747  0.8414
      3s       0.0000  0.0000  0.0000  0.0000  0.0000  0.0000  0.0000  0.0000  0.0000  0.0000 -0.0230 -0.0046
      3px      0.0000  0.0000  0.0000  0.0000  0.0000  0.0000  0.0000  0.0000  0.0000  0.0000  0.0116  0.1225
      3pz      0.0000  0.0000  0.0000  0.0000  0.0000  0.0000  0.0000  0.0000  0.0000  0.0000 -0.0112 -0.0288
      3py      0.0000  0.0000  0.0000  0.0000  0.0000  0.0000  0.0000  0.0000  0.0000  0.0000 -0.0220  0.1066
      3d2+     0.0000  0.0000  0.0000  0.0000  0.0000  0.0000  0.0000  0.0000  0.0000  0.0000  0.0164  0.0743
      3d1+     0.0000  0.0000  0.0000  0.0000  0.0000  0.0000  0.0000  0.0000  0.0000  0.0000  0.0095  0.0819
      3d0      0.0000  0.0000  0.0000  0.0000  0.0000  0.0000  0.0000  0.0000  0.0000  0.0000  0.0029  0.0074
      3d1-     0.0000  0.0000  0.0000  0.0000  0.0000  0.0000  0.0000  0.0000  0.0000  0.0000  0.0004  0.0398
      3d2-     0.0000  0.0000  0.0000  0.0000  0.0000  0.0000  0.0000  0.0000  0.0000  0.0000  0.0247  0.0745
      Total    0.9510  0.9510  0.9442  1.0173  1.0184  1.0278  0.9262  0.9334  0.9704  0.9743  6.7649  5.7241
 
      N-E      0.0490  0.0490  0.0558 -0.0173 -0.0184 -0.0278  0.0738  0.0666  0.0296  0.0257  0.2351  0.2759
 
                C13     C14     C15     C16     C17   
      1s       1.9985  1.9986  1.9986  1.9989  1.9991
      2s       1.0278  1.0303  1.0241  0.9932  0.9152
      2px      0.8340  0.8280  0.8250  0.9784  1.0836
      2pz      1.0733  0.7545  1.0434  0.7753  1.0940
      2py      0.8402  0.9201  0.8707  0.9998  0.9186
      3s      -0.0254 -0.0159 -0.0049 -0.0140 -0.0197
      3px      0.0790  0.0928  0.1018  0.0441  0.0004
      3pz     -0.0126 -0.0222 -0.0124 -0.0115 -0.0065
      3py      0.0222  0.0394  0.0377  0.0023  0.0252
      3d2+     0.0338  0.0457  0.0499  0.0301  0.0241
      3d1+     0.0205  0.0548  0.0298  0.0314  0.0274
      3d0      0.0037  0.0045  0.0046  0.0032  0.0227
      3d1-     0.0067  0.0117  0.0105  0.0009  0.0107
      3d2-     0.0614  0.0530  0.0549  0.0480  0.0295
      Total    5.9632  5.7953  6.0339  5.8803  6.1244
 
      N-E      0.0368  0.2047 -0.0339  0.1197 -0.1244
 
      Total electronic charge=   52.000000
 
      Total            charge=    1.000000
--
 
 

      Expectation values of various properties for root number:  1
      -----------------------------------------------------------
 
 
++    Molecular properties:
      ---------------------
 
      Charge (e):
                      =    1.0000
      Dipole Moment (Debye):
      Origin of the operator (Ang)=    0.0000    0.0000    0.0000
                   X=  4.6472E+00               Y=  5.0395E+00               Z= -2.3841E-05           Total=  6.8551E+00
      Center of Charge (Ang)
                     X=    0.96751797               Y=    1.04919893               Z=   -0.00000496
      Quadrupole Moment (Debye*Ang):
      Origin of the operator (Ang)=    0.1698    0.9609    0.0000
                  XX= -7.7072E+00              XY=  2.1907E+00              XZ=  6.5613E-05              YY= -3.1007E+01
                  YZ= -1.7186E-05              ZZ= -4.5710E+01
      In traceless form (Debye*Ang)
                  XX=  3.0652E+01              XY=  3.2860E+00              XZ=  9.8419E-05              YY= -4.2984E+00
                  YZ= -2.5779E-05              ZZ= -2.6353E+01
--
 

      LoProp population analysis for root number:  1
      -----------------------------------------------
 
 
++    LoProp analysis:
      ----------------
 
 
 
      Input file to MOLDEN was generated!
 
 
++    Static properties:
      ------------------
 
 
      LoProp Charges per center
 

                   H1       H2       H3       H4       H5       H6       H7       H8       H9       H10   
      Nuclear      1.0000   1.0000   1.0000   1.0000   1.0000   1.0000   1.0000   1.0000   1.0000   1.0000
      Electronic  -0.8347  -0.8347  -0.8534  -0.8555  -0.8593  -0.8750  -0.7046  -0.7052  -0.8405  -0.8551
 
      Total        0.1653   0.1653   0.1466   0.1445   0.1407   0.1250   0.2954   0.2948   0.1595   0.1449
 

                   N11      C12      C13      C14      C15      C16      C17   
      Nuclear      7.0000   6.0000   6.0000   6.0000   6.0000   6.0000   6.0000
      Electronic  -7.3434  -5.6076  -6.1991  -5.9708  -6.1741  -6.1347  -6.3524
 
      Total       -0.3434   0.3924  -0.1991   0.0292  -0.1741  -0.1347  -0.3524
--
 
 
      Natural Bond Order analysis for root number:  1
 
++    Natural Bond Order analysis
      ---------------------------
      Based on LoProp computed density
      -------------------------------------------------------------------------------------
      Atom A       Atom B       Bond Order
      -------------------------------------------------------------------------------------
      NBO located      0.999 non-bonded electrons on atom N11       
      NBO located      1.000 non-bonded electrons on atom C12       
      The remaining   30.975 electrons are to be considered as diffuse
--
 
--
 
 
      Input file to MOLDEN was generated!
 
      Average orbitals are written to the RASORB file
      Natural orbitals for root   1 are written to the RASORB.1 file
      Spin density orbitals for root   1 are written to the SPDORB.1 file
 
 
++    Wave function specifications:
      -----------------------------
 
      Number of closed shell electrons          32
      Number of electrons in active shells       6
      Max number of holes in RAS1 space          0
      Max number of electrons in RAS3 space      0
      Number of inactive orbitals               16
      Number of active orbitals                  6
      Number of secondary orbitals             119
      Spin quantum number                      0.0
      State symmetry                             1
      Number of CSFs                           175
      Number of root(s) available                1
      Root passed to geometry opt.               1
      A file JOBMIX will be created
      This is a CASSCF or RASSCF reference function
--
 
++    Orbital specifications:
      -----------------------
 
      Symmetry species                           1
                                                 a
      Frozen orbitals                            7
      Inactive orbitals                         16
      Active orbitals                            6
      Secondary orbitals                       119
      Deleted orbitals                           0
      Number of basis functions                148
--
 
++    CASPT2 specifications:
      ----------------------
 
      Type of calculation                        SS-CASPT2
      Fock operator                              state-specific
      IPEA shift                                 0.25
      Real shift                                 0.00
      Imaginary shift                            0.00
      The input orbitals will be transformed to quasi-canonical
--
 
--------------------------------------------------------------------------------
 Estimated memory requirements:
  POLY3 :                   262414
  RHS:                     2271604
  SIGMA :                  2991760
  PRPCTL:                        0
 Available workspace:   2699955324
 
++ CASPT2 computation for group   1
 
********************************************************************************
 Multi-State initialization phase begins for group   1
--------------------------------------------------------------------------------
********************************************************************************
 Compute H0 matrices for state    1
--------------------------------------------------------------------------------
--------------------------------------------------------------------------------
 H0 matrices have been computed.
 
********************************************************************************
  CASPT2 EQUATION SOLUTION
--------------------------------------------------------------------------------
 
  Total nr of CASPT2 parameters:
   Before reduction:     3781959
   After  reduction:     3778721
 
 The contributions to the second order correlation energy in atomic units.
-----------------------------------------------------------------------------------------------------------------------------
  IT.      VJTU        VJTI        ATVX        AIVX        VJAI        BVAT        BJAT        BJAI        TOTAL       RNORM  
-----------------------------------------------------------------------------------------------------------------------------
   1    -0.001460   -0.001838   -0.013336   -0.034990   -0.023684   -0.042109   -0.071006   -0.694863   -0.883286    0.020563
   2    -0.001560   -0.001993   -0.013721   -0.035943   -0.024122   -0.042472   -0.071388   -0.695989   -0.887189    0.004310
   3    -0.001559   -0.002006   -0.013710   -0.035926   -0.024107   -0.042458   -0.071316   -0.695868   -0.886951    0.001238
   4    -0.001563   -0.002013   -0.013698   -0.035886   -0.024090   -0.042438   -0.071297   -0.695807   -0.886791    0.000293
   5    -0.001563   -0.002013   -0.013698   -0.035886   -0.024091   -0.042439   -0.071302   -0.695815   -0.886808    0.000070
   6    -0.001563   -0.002013   -0.013698   -0.035887   -0.024092   -0.042441   -0.071303   -0.695819   -0.886816    0.000015
   7    -0.001563   -0.002013   -0.013698   -0.035887   -0.024092   -0.042441   -0.071303   -0.695819   -0.886815    0.000003
-----------------------------------------------------------------------------------------------------------------------------
 
  FINAL CASPT2 RESULT:
 
      Reference energy:        -287.3773141489
      E2 (Non-variational):      -0.8868147762
      E2 (Variational):          -0.8868148140
      Total energy:            -288.2641289629
      Residual norm:              0.0000007348
      Reference weight:           0.75685
 
      Contributions to the CASPT2 correlation energy
      Active & Virtual Only:         -0.0561390093
      One Inactive Excited:          -0.1087525391
      Two Inactive Excited:          -0.7219232278
 
 
++ Denominators, etc.
--------------------------------------------------------------------------------------------------------------
 Report on small energy denominators, large coefficients, and large energy contributions.
CASE  SYMM ACTIVE-MIX  NON-ACTIVE INDICES          DENOMINATOR     RHS VALUE       COEFFICIENT     CONTRIBUTION
VJTIP    1  Mu1.0001  In1.023 In1.023               1.14947496     -0.02235665      0.02780121     -0.00062154
VJAIP    1  Mu1.0001  Se1.034 In1.023 In1.023       1.10580801      0.01609527     -0.02639966     -0.00042491
BVATP    1  Mu1.0001  Se1.031 Se1.031               1.00423403     -0.02595677      0.02717651     -0.00070541
BJAIP    1  Se1.031 In1.017 Se1.031 In1.017         1.49017743      0.03957937     -0.02688162     -0.00106396
BJAIP    1  Se1.031 In1.017 Se1.031 In1.021         1.39763617      0.03447854     -0.02552133     -0.00087994
BJAIP    1  Se1.031 In1.021 Se1.031 In1.021         1.30509490      0.04914853     -0.03921899     -0.00192756
BJAIP    1  Se1.034 In1.023 Se1.034 In1.023         1.09236669      0.07470808     -0.07088602     -0.00529576
--
 
   (Skipping property calculation,
    use PROP keyword to activate)
--
 
  Total CASPT2 energies:
::    CASPT2 Root  1     Total energy:   -288.26412896
 
  A NEW JOBIPH FILE NAMED 'JOBMIX' IS PREPARED.
********************************************************************************
--- Stop Module: last_energy at Sun Apr 21 13:10:11 2024 /rc=_RC_ALL_IS_WELL_ ---
*** files: geo_opt.LprOrb geo_opt.rasscf.molden geo_opt.LoProp.molden geo_opt.RasOrb.1 geo_opt.RasOrb geo_opt.SpdOrb.1 xmldump
    saved to directory /home/saruti/conference/good_s+o/meth_PSB3/geo_opt/6-6/manual
--- Module last_energy spent 2 minutes 35 seconds ---

>>> END DO

.##################.
.# Happy landing! #.
.##################.

    Timing: Wall=42301.18 User=30673.37 System=2078.00
************************************************************
*** WorkDir at /lustre/tmp/slurm/2657487/geo_opt cleaned ***
************************************************************
